 Entering Gaussian System, Link 0=gdv
 Input=ML29.com
 Output=ML29.log
 Initial command:
 /panfs/pfs.local/work/caricato/m330c584/PANFS-WORK-MCARICATO/gdv_i09/gdv/l1.exe "/tmp/abiancar/Gau-75801.inp" -scrdir="/tmp/abiancar/"
 Entering Link 1 = /panfs/pfs.local/work/caricato/m330c584/PANFS-WORK-MCARICATO/gdv_i09/gdv/l1.exe PID=     75802.
  
 Copyright (c) 1988,1990,1992,1993,1995,1998,2003,2009,2016,
            Gaussian, Inc.  All Rights Reserved.
  
 This is the private, development version of
 the Gaussian(R) DV system of programs. It is based on
 the Gaussian(R) 09 system (copyright 2009, Gaussian, Inc.),
 the Gaussian(R) 03 system (copyright 2003, Gaussian, Inc.),
 the Gaussian(R) 98 system (copyright 1998, Gaussian, Inc.),
 the Gaussian(R) 94 system (copyright 1995, Gaussian, Inc.),
 the Gaussian 92(TM) system (copyright 1992, Gaussian, Inc.),
 the Gaussian 90(TM) system (copyright 1990, Gaussian, Inc.),
 the Gaussian 88(TM) system (copyright 1988, Gaussian, Inc.),
 the Gaussian 86(TM) system (copyright 1986, Carnegie Mellon
 University), and the Gaussian 82(TM) system (copyright 1983,
 Carnegie Mellon University). Gaussian is a federally registered
 trademark of Gaussian, Inc.
  
 This software contains proprietary and confidential information,
 including trade secrets, belonging to Gaussian, Inc.
  
 This software is provided under written license and may be
 used, copied, transmitted, or stored only in accord with that
 written license.
  
 The following legend is applicable only to US Government
 contracts under FAR:
  
                    RESTRICTED RIGHTS LEGEND
  
 Use, reproduction and disclosure by the US Government is
 subject to restrictions as set forth in subparagraphs (a)
 and (c) of the Commercial Computer Software - Restricted
 Rights clause in FAR 52.227-19.
  
 Gaussian, Inc.
 340 Quinnipiac St., Bldg. 40, Wallingford CT 06492
  
  
 ---------------------------------------------------------------
 Warning -- This program may not be used in any manner that
 competes with the business of Gaussian, Inc. or will provide
 assistance to any competitor of Gaussian, Inc.  The licensee
 of this program is prohibited from giving any competitor of
 Gaussian, Inc. access to this program.  By using this program,
 the user acknowledges that Gaussian, Inc. is engaged in the
 business of creating and licensing software in the field of
 computational chemistry and represents and warrants to the
 licensee that it is not a competitor of Gaussian, Inc. and that
 it will not use this program in any manner prohibited above.
 ---------------------------------------------------------------
  

 Cite this work as:
 Gaussian Development Version, Revision I.09,
 M. J. Frisch, G. W. Trucks, H. B. Schlegel, G. E. Scuseria, 
 M. A. Robb, J. R. Cheeseman, G. Scalmani, V. Barone, 
 G. A. Petersson, H. Nakatsuji, X. Li, M. Caricato, A. Marenich, 
 J. Bloino, B. G. Janesko, R. Gomperts, B. Mennucci, H. P. Hratchian, 
 J. V. Ortiz, A. F. Izmaylov, J. L. Sonnenberg, D. Williams-Young, 
 F. Ding, F. Lipparini, F. Egidi, J. Goings, B. Peng, A. Petrone, 
 T. Henderson, D. Ranasinghe, V. G. Zakrzewski, J. Gao, N. Rega, 
 G. Zheng, W. Liang, M. Hada, M. Ehara, K. Toyota, R. Fukuda, 
 J. Hasegawa, M. Ishida, T. Nakajima, Y. Honda, O. Kitao, H. Nakai, 
 T. Vreven, K. Throssell, J. A. Montgomery, Jr., J. E. Peralta, 
 F. Ogliaro, M. Bearpark, J. J. Heyd, E. Brothers, K. N. Kudin, 
 V. N. Staroverov, T. Keith, R. Kobayashi, J. Normand, 
 K. Raghavachari, A. Rendell, J. C. Burant, S. S. Iyengar, J. Tomasi, 
 M. Cossi, J. M. Millam, M. Klene, C. Adamo, R. Cammi, 
 J. W. Ochterski, R. L. Martin, K. Morokuma, O. Farkas, 
 J. B. Foresman, and D. J. Fox, Gaussian, Inc., Wallingford CT, 2016.
 
 ******************************************
 Gaussian DV:  ES64L-GDVRevI.09  1-Aug-2016
                25-Nov-2018 
 ******************************************
  %chk= ML29.chk
  %mem=20Gb
  %nprocshared=20
 Will use up to   20 processors via shared memory.
 -----------------------------------------------------
 #p TD(nstates=100) B3LYP/6-31+G(d) nosym geom=nocrowd
 -----------------------------------------------------
 1/38=1,172=1/1;
 2/12=1,15=1,17=6,18=5,40=1/2;
 3/5=1,6=6,7=11,11=9,25=1,30=1,74=-5/1,2,3,8;
 4//1;
 5/5=2,38=5/2;
 8/6=1,10=2,108=100/1;
 9/41=100,42=1,70=2/14;
 6/7=2,8=2,9=2,10=2/1;
 99/5=1,9=1/99;
 Leave Link    1 at Sun Nov 25 19:48:15 2018, MaxMem=  2684354560 cpu:               1.8 elap:               0.1
 (Enter /panfs/pfs.local/work/caricato/m330c584/PANFS-WORK-MCARICATO/gdv_i09/gdv/l101.exe)
 ----
 ML29
 ----
 Symbolic Z-matrix:
 Charge =  0 Multiplicity = 1
 C                    0     1.04452  -1.07406   0.57012 
 C                    0     2.41772  -1.11122   0.59154 
 C                    0     3.19985  -0.03498  -0.02435 
 C                    0     2.43181   1.09493  -0.55425 
 C                    0     1.05874   1.07042  -0.54383 
 C                    0     0.35791  -0.00114   0.00499 
 N                    0    -1.07796  -0.00611  -0.02375 
 C                    0    -1.77656   1.02031   0.55638 
 C                    0    -1.74847  -1.03887  -0.62394 
 O                    0     4.43878  -0.06894  -0.07721 
 C                    0    -3.15565   1.02041   0.52148 
 C                    0    -3.12867  -1.06662  -0.60465 
 H                    0     0.48358  -1.90342   0.98637 
 H                    0     0.50955   1.89147  -0.99073 
 H                    0    -3.62025  -1.8814   -1.11687 
 H                    0    -3.66928   1.82963   1.02079 
 C                    0    -3.87109  -0.03247  -0.04297 
 C-#1                 0     3.12281   2.28399  -1.09991 
 C-#1                 0     3.09757  -2.25573   1.23881 
 C-#1                 0    -5.34628  -0.04905  -0.04836 
 C-#1                 0    -1.00896  -2.09522  -1.35483 
 C-#1                 0    -1.06589   2.10837   1.27114 
 C-#6-0.047757        0     2.61017   3.56223  -0.85391 
 C-#6-0.063891        0     4.34239   4.57189  -2.18161 
 C-#6--0.002831       0     4.27851   2.17901  -1.87962 
 C-#6--0.347467       0     4.87376   3.31004  -2.4179 
 C-#6--0.377006       0     3.20791   4.69322  -1.39118 
 H-#6-0.082642        0     4.81606   5.45282  -2.59902 
 H-#6-0.155379        0     2.79406   5.67278  -1.1791 
 H-#6-0.090038        0     1.74546   3.67339  -0.20886 
 H-#6-0.123395        0     4.71164   1.20326  -2.0432 
 H-#6-0.159899        0     5.7667    3.20469  -3.02355 
 C-#6--0.027875       0     4.29369  -4.49993   2.43681 
 C-#6-0.014075        0     2.58256  -2.8114    2.41397 
 C-#6--0.047869       0     4.24449  -2.8372    0.68902 
 C-#6--0.318701       0     3.16749  -3.92187   3.00551 
 C-#6--0.250727       0     4.82779  -3.94832   1.27898 
 H-#6-0.125036        0     4.68016  -2.3979   -0.196 
 H-#6-0.138582        0     5.71404  -4.38421   0.83188 
 H-#6-0.102100        0     4.75838  -5.36363   2.89795 
 H-#6-0.153109        0     2.7503   -4.32681   3.92067 
 H-#6-0.057161        0     1.72194  -2.35128   2.88668 
 C-#6--0.363173       0    -6.04304  -1.24802   0.11216 
 C-#6-0.168830        0    -7.42886  -1.26315   0.11072 
 C-#6-0.167255        0    -7.45565   1.1158   -0.22161 
 C-#6--0.366408       0    -8.13883  -0.08185  -0.05782 
 C-#6--0.360506       0    -6.06988   1.13324  -0.21361 
 H-#6-0.161568        0    -5.54619   2.0696   -0.3642 
 H-#6-0.168879        0    -9.22181  -0.09456  -0.06148 
 H-#6-0.067362        0    -7.95611  -2.19926   0.24766 
 H-#6-0.067867        0    -8.00379   2.03927  -0.36227 
 H-#6-0.166909        0    -5.49836  -2.17178   0.26614 
 C-#6--0.449678       0    -0.09861  -1.77762  -2.36315 
 C-#6--0.360462       0    -1.27677  -3.43028  -1.0672 
 C-#6-0.222315        0    -0.62993  -4.44034  -1.76602 
 C-#6--0.462322       0     0.27524  -4.1204   -2.7657 
 C-#6-0.261235        0     0.53331  -2.78755  -3.06605 
 H-#6-0.128359        0    -1.97107  -3.68144  -0.27361 
 H-#6-0.057910        0    -0.82687  -5.4762   -1.51909 
 H-#6-0.186525        0     0.78783  -4.90668  -3.30601 
 H-#6-0.061397        0     1.24327  -2.53241  -3.8427 
 H-#6-0.154152        0     0.13288  -0.74322  -2.58001 
 C-#6--0.572868       0    -0.16543   1.83923   2.30211 
 C-#6--0.523167       0    -1.34372   3.42884   0.93045 
 C-#6-0.398891        0    -0.71648   4.47182   1.59925 
 C-#6-0.460776        0     0.44883   2.88135   2.97312 
 C-#6--0.643869       0     0.18101   4.19948   2.61971 
 H-#6-0.164920        0    -2.03001   3.64227   0.11911 
 H-#6-0.027350        0    -0.92317   5.49553   1.31238 
 H-#6-0.220154        0     0.68043   5.01054   3.13517 
 H-#6-0.028509        0     1.15446   2.66319   3.76473 
 H-#6-0.154242        0     0.0758    0.81624   2.55833 
 H                    0     2.93201   1.95568  -0.94924 
 H                    0     2.90985  -1.93971   1.06009 
 H                    0    -4.93896  -0.04447  -0.04687 
 H                    0    -1.21315  -1.80355  -1.15302 
 H                    0    -1.26212   1.80794   1.07378 
 
 ITRead=  0  0  0  0  0  0  0  0  0  0  0  0  0  0  0  0  0  0  0  0
 ITRead=  0  0  0  0  0  0  0  0  0  0  0  0  0  0  0  0  0  0  0  0
 ITRead=  0  0  0  0  0  0  0  0  0  0  0  0  0  0  0  0  0  0  0  0
 ITRead=  0  0  0  0  0  0  0  0  0  0  0  0  0  0  0  0  0
 MicOpt= -1 -1 -1 -1 -1 -1 -1 -1 -1 -1 -1 -1 -1 -1 -1 -1 -1 -1 -1 -1
 MicOpt= -1 -1 -1 -1 -1 -1 -1 -1 -1 -1 -1 -1 -1 -1 -1 -1 -1 -1 -1 -1
 MicOpt= -1 -1 -1 -1 -1 -1 -1 -1 -1 -1 -1 -1 -1 -1 -1 -1 -1 -1 -1 -1
 MicOpt= -1 -1 -1 -1 -1 -1 -1 -1 -1 -1 -1 -1 -1 -1 -1 -1 -1
 NAtoms=     77 NQM=       77 NQMF=       0 NMMI=      0 NMMIF=      0
                NMic=       0 NMicF=      0.
                    Isotopes and Nuclear Properties:
 (Nuclear quadrupole moments (NQMom) in fm**2, nuclear magnetic moments (NMagM)
  in nuclear magnetons)

  Atom         1           2           3           4           5           6           7           8           9          10
 IAtWgt=          12          12          12          12          12          12          14          12          12          16
 AtmWgt=  12.0000000  12.0000000  12.0000000  12.0000000  12.0000000  12.0000000  14.0030740  12.0000000  12.0000000  15.9949146
 NucSpn=           0           0           0           0           0           0           2           0           0           0
 AtZEff=   0.0000000   0.0000000   0.0000000   0.0000000   0.0000000   0.0000000   0.0000000   0.0000000   0.0000000   0.0000000
 NQMom=    0.0000000   0.0000000   0.0000000   0.0000000   0.0000000   0.0000000   2.0440000   0.0000000   0.0000000   0.0000000
 NMagM=    0.0000000   0.0000000   0.0000000   0.0000000   0.0000000   0.0000000   0.4037610   0.0000000   0.0000000   0.0000000
 AtZNuc=   6.0000000   6.0000000   6.0000000   6.0000000   6.0000000   6.0000000   7.0000000   6.0000000   6.0000000   8.0000000

  Atom        11          12          13          14          15          16          17          18          19          20
 IAtWgt=          12          12           1           1           1           1          12          12          12          12
 AtmWgt=  12.0000000  12.0000000   1.0078250   1.0078250   1.0078250   1.0078250  12.0000000  12.0000000  12.0000000  12.0000000
 NucSpn=           0           0           1           1           1           1           0           0           0           0
 AtZEff=   0.0000000   0.0000000   0.0000000   0.0000000   0.0000000   0.0000000   0.0000000   0.0000000   0.0000000   0.0000000
 NQMom=    0.0000000   0.0000000   0.0000000   0.0000000   0.0000000   0.0000000   0.0000000   0.0000000   0.0000000   0.0000000
 NMagM=    0.0000000   0.0000000   2.7928460   2.7928460   2.7928460   2.7928460   0.0000000   0.0000000   0.0000000   0.0000000
 AtZNuc=   6.0000000   6.0000000   1.0000000   1.0000000   1.0000000   1.0000000   6.0000000   6.0000000   6.0000000   6.0000000

  Atom        21          22          23          24          25          26          27          28          29          30
 IAtWgt=          12          12          12          12          12          12          12           1           1           1
 AtmWgt=  12.0000000  12.0000000  12.0000000  12.0000000  12.0000000  12.0000000  12.0000000   1.0078250   1.0078250   1.0078250
 NucSpn=           0           0           0           0           0           0           0           1           1           1
 AtZEff=   0.0000000   0.0000000   0.0000000   0.0000000   0.0000000   0.0000000   0.0000000   0.0000000   0.0000000   0.0000000
 NQMom=    0.0000000   0.0000000   0.0000000   0.0000000   0.0000000   0.0000000   0.0000000   0.0000000   0.0000000   0.0000000
 NMagM=    0.0000000   0.0000000   0.0000000   0.0000000   0.0000000   0.0000000   0.0000000   2.7928460   2.7928460   2.7928460
 AtZNuc=   6.0000000   6.0000000   6.0000000   6.0000000   6.0000000   6.0000000   6.0000000   1.0000000   1.0000000   1.0000000

  Atom        31          32          33          34          35          36          37          38          39          40
 IAtWgt=           1           1          12          12          12          12          12           1           1           1
 AtmWgt=   1.0078250   1.0078250  12.0000000  12.0000000  12.0000000  12.0000000  12.0000000   1.0078250   1.0078250   1.0078250
 NucSpn=           1           1           0           0           0           0           0           1           1           1
 AtZEff=   0.0000000   0.0000000   0.0000000   0.0000000   0.0000000   0.0000000   0.0000000   0.0000000   0.0000000   0.0000000
 NQMom=    0.0000000   0.0000000   0.0000000   0.0000000   0.0000000   0.0000000   0.0000000   0.0000000   0.0000000   0.0000000
 NMagM=    2.7928460   2.7928460   0.0000000   0.0000000   0.0000000   0.0000000   0.0000000   2.7928460   2.7928460   2.7928460
 AtZNuc=   1.0000000   1.0000000   6.0000000   6.0000000   6.0000000   6.0000000   6.0000000   1.0000000   1.0000000   1.0000000

  Atom        41          42          43          44          45          46          47          48          49          50
 IAtWgt=           1           1          12          12          12          12          12           1           1           1
 AtmWgt=   1.0078250   1.0078250  12.0000000  12.0000000  12.0000000  12.0000000  12.0000000   1.0078250   1.0078250   1.0078250
 NucSpn=           1           1           0           0           0           0           0           1           1           1
 AtZEff=   0.0000000   0.0000000   0.0000000   0.0000000   0.0000000   0.0000000   0.0000000   0.0000000   0.0000000   0.0000000
 NQMom=    0.0000000   0.0000000   0.0000000   0.0000000   0.0000000   0.0000000   0.0000000   0.0000000   0.0000000   0.0000000
 NMagM=    2.7928460   2.7928460   0.0000000   0.0000000   0.0000000   0.0000000   0.0000000   2.7928460   2.7928460   2.7928460
 AtZNuc=   1.0000000   1.0000000   6.0000000   6.0000000   6.0000000   6.0000000   6.0000000   1.0000000   1.0000000   1.0000000

  Atom        51          52          53          54          55          56          57          58          59          60
 IAtWgt=           1           1          12          12          12          12          12           1           1           1
 AtmWgt=   1.0078250   1.0078250  12.0000000  12.0000000  12.0000000  12.0000000  12.0000000   1.0078250   1.0078250   1.0078250
 NucSpn=           1           1           0           0           0           0           0           1           1           1
 AtZEff=   0.0000000   0.0000000   0.0000000   0.0000000   0.0000000   0.0000000   0.0000000   0.0000000   0.0000000   0.0000000
 NQMom=    0.0000000   0.0000000   0.0000000   0.0000000   0.0000000   0.0000000   0.0000000   0.0000000   0.0000000   0.0000000
 NMagM=    2.7928460   2.7928460   0.0000000   0.0000000   0.0000000   0.0000000   0.0000000   2.7928460   2.7928460   2.7928460
 AtZNuc=   1.0000000   1.0000000   6.0000000   6.0000000   6.0000000   6.0000000   6.0000000   1.0000000   1.0000000   1.0000000

  Atom        61          62          63          64          65          66          67          68          69          70
 IAtWgt=           1           1          12          12          12          12          12           1           1           1
 AtmWgt=   1.0078250   1.0078250  12.0000000  12.0000000  12.0000000  12.0000000  12.0000000   1.0078250   1.0078250   1.0078250
 NucSpn=           1           1           0           0           0           0           0           1           1           1
 AtZEff=   0.0000000   0.0000000   0.0000000   0.0000000   0.0000000   0.0000000   0.0000000   0.0000000   0.0000000   0.0000000
 NQMom=    0.0000000   0.0000000   0.0000000   0.0000000   0.0000000   0.0000000   0.0000000   0.0000000   0.0000000   0.0000000
 NMagM=    2.7928460   2.7928460   0.0000000   0.0000000   0.0000000   0.0000000   0.0000000   2.7928460   2.7928460   2.7928460
 AtZNuc=   1.0000000   1.0000000   6.0000000   6.0000000   6.0000000   6.0000000   6.0000000   1.0000000   1.0000000   1.0000000

  Atom        71          72          73          74          75          76          77
 IAtWgt=           1           1           1           1           1           1           1
 AtmWgt=   1.0078250   1.0078250   1.0078250   1.0078250   1.0078250   1.0078250   1.0078250
 NucSpn=           1           1           1           1           1           1           1
 AtZEff=   0.0000000   0.0000000   0.0000000   0.0000000   0.0000000   0.0000000   0.0000000
 NQMom=    0.0000000   0.0000000   0.0000000   0.0000000   0.0000000   0.0000000   0.0000000
 NMagM=    2.7928460   2.7928460   2.7928460   2.7928460   2.7928460   2.7928460   2.7928460
 AtZNuc=   1.0000000   1.0000000   1.0000000   1.0000000   1.0000000   1.0000000   1.0000000
 MM Charge=             -0.6665 electrons
 MM Dipole moment (Debye):
    X=              4.9253    Y=             -0.3336    Z=             -1.0927  Tot=              5.0561
 MM Quadrupole moment (Debye-Ang):
   XX=             12.5855   YY=             20.4161   ZZ=             11.3781
   XY=             -0.9605   XZ=             -6.5266   YZ=              1.9197
 MM Traceless Quadrupole moment (Debye-Ang):
   XX=             -2.2077   YY=              5.6229   ZZ=             -3.4152
   XY=             -0.9605   XZ=             -6.5266   YZ=              1.9197
 MM Octapole moment (Debye-Ang**2):
  XXX=            -85.8078  YYY=             19.9761  ZZZ=              8.9502  XYY=            -23.6699
  XXY=            -24.5148  XXZ=            -47.4667  XZZ=             48.4471  YZZ=             -7.6247
  YYZ=              4.3460  XYZ=             42.6019
 MM Hexadecapole moment (Debye-Ang**3):
 XXXX=           3287.6967 YYYY=           1631.0475 ZZZZ=            384.1021 XXXY=           -107.4303
 XXXZ=           -244.4145 YYYX=            -20.3698 YYYZ=            132.2155 ZZZX=            -29.3525
 ZZZY=             59.5771 XXYY=            628.9727 XXZZ=            151.6333 YYZZ=            322.8119
 XXYZ=            -96.9430 YYXZ=             -3.4713 ZZXY=             12.3112
 Leave Link  101 at Sun Nov 25 19:48:15 2018, MaxMem=  2684354560 cpu:               4.2 elap:               0.3
 (Enter /panfs/pfs.local/work/caricato/m330c584/PANFS-WORK-MCARICATO/gdv_i09/gdv/l202.exe)
 Symmetry turned off by external request.
 Stoichiometry    C41H34NO
 Framework group  C1[X(C41H34NO)]
 Deg. of freedom   225
 Full point group                 C1      NOp   1
                          Input orientation:                          
 ---------------------------------------------------------------------
 Center     Atomic      Atomic             Coordinates (Angstroms)
 Number     Number       Type             X           Y           Z
 ---------------------------------------------------------------------
      1          6           0        1.044523   -1.074059    0.570119
      2          6           0        2.417721   -1.111219    0.591537
      3          6           0        3.199849   -0.034980   -0.024347
      4          6           0        2.431809    1.094935   -0.554247
      5          6           0        1.058738    1.070420   -0.543826
      6          6           0        0.357909   -0.001139    0.004987
      7          7           0       -1.077959   -0.006115   -0.023751
      8          6           0       -1.776555    1.020310    0.556382
      9          6           0       -1.748475   -1.038869   -0.623940
     10          8           0        4.438780   -0.068943   -0.077215
     11          6           0       -3.155648    1.020414    0.521477
     12          6           0       -3.128675   -1.066624   -0.604653
     13          1           0        0.483580   -1.903420    0.986365
     14          1           0        0.509554    1.891467   -0.990730
     15          1           0       -3.620252   -1.881401   -1.116872
     16          1           0       -3.669280    1.829626    1.020788
     17          6           0       -3.871093   -0.032465   -0.042969
     18          6           1        3.122807    2.283991   -1.099910
     19          6           1        3.097570   -2.255725    1.238809
     20          6           1       -5.346278   -0.049054   -0.048360
     21          6           1       -1.008956   -2.095223   -1.354825
     22          6           1       -1.065895    2.108372    1.271139
     23          6           6        2.610167    3.562233   -0.853906
     24          6           6        4.342392    4.571887   -2.181607
     25          6           6        4.278511    2.179010   -1.879620
     26          6           6        4.873757    3.310037   -2.417903
     27          6           6        3.207911    4.693222   -1.391178
     28          1           6        4.816061    5.452818   -2.599018
     29          1           6        2.794060    5.672782   -1.179104
     30          1           6        1.745455    3.673394   -0.208857
     31          1           6        4.711637    1.203262   -2.043196
     32          1           6        5.766703    3.204695   -3.023551
     33          6           6        4.293686   -4.499925    2.436812
     34          6           6        2.582564   -2.811404    2.413966
     35          6           6        4.244494   -2.837203    0.689021
     36          6           6        3.167487   -3.921869    3.005505
     37          6           6        4.827792   -3.948323    1.278980
     38          1           6        4.680163   -2.397904   -0.195999
     39          1           6        5.714039   -4.384214    0.831877
     40          1           6        4.758382   -5.363629    2.897947
     41          1           6        2.750296   -4.326813    3.920665
     42          1           6        1.721942   -2.351281    2.886681
     43          6           6       -6.043041   -1.248021    0.112161
     44          6           6       -7.428855   -1.263150    0.110716
     45          6           6       -7.455655    1.115802   -0.221614
     46          6           6       -8.138825   -0.081853   -0.057816
     47          6           6       -6.069877    1.133238   -0.213610
     48          1           6       -5.546185    2.069596   -0.364205
     49          1           6       -9.221813   -0.094563   -0.061479
     50          1           6       -7.956109   -2.199256    0.247661
     51          1           6       -8.003794    2.039271   -0.362265
     52          1           6       -5.498365   -2.171781    0.266141
     53          6           6       -0.098609   -1.777620   -2.363148
     54          6           6       -1.276769   -3.430280   -1.067199
     55          6           6       -0.629928   -4.440342   -1.766020
     56          6           6        0.275235   -4.120396   -2.765696
     57          6           6        0.533315   -2.787548   -3.066052
     58          1           6       -1.971075   -3.681440   -0.273613
     59          1           6       -0.826874   -5.476201   -1.519095
     60          1           6        0.787831   -4.906679   -3.306009
     61          1           6        1.243268   -2.532414   -3.842699
     62          1           6        0.132879   -0.743225   -2.580014
     63          6           6       -0.165428    1.839233    2.302109
     64          6           6       -1.343719    3.428845    0.930451
     65          6           6       -0.716481    4.471825    1.599249
     66          6           6        0.448827    2.881353    2.973124
     67          6           6        0.181008    4.199480    2.619713
     68          1           6       -2.030013    3.642274    0.119107
     69          1           6       -0.923167    5.495526    1.312376
     70          1           6        0.680425    5.010540    3.135167
     71          1           6        1.154458    2.663194    3.764725
     72          1           6        0.075804    0.816238    2.558326
     73          1           0        2.932012    1.955675   -0.949244
     74          1           0        2.909853   -1.939710    1.060087
     75          1           0       -4.938958   -0.044473   -0.046871
     76          1           0       -1.213147   -1.803548   -1.153017
     77          1           0       -1.262118    1.807941    1.073783
 ---------------------------------------------------------------------
 Rotational constants (GHZ):           0.0969961           0.0594215           0.0457238
 Leave Link  202 at Sun Nov 25 19:48:15 2018, MaxMem=  2684354560 cpu:               2.4 elap:               0.2
 (Enter /panfs/pfs.local/work/caricato/m330c584/PANFS-WORK-MCARICATO/gdv_i09/gdv/l301.exe)
 Standard basis: 6-31+G(d) (6D, 7F)
 Ernie: Thresh=  0.10000D-02 Tol=  0.10000D-05 Strict=F.
   265 basis functions,   452 primitive gaussians,   265 cartesian basis functions
    45 alpha electrons       45 beta electrons
       nuclear repulsion energy       691.9805433418 Hartrees.
 Nuclear repulsion from inactive atom pairs=       -0.7649004323 Hartrees.
 IExCor=  402 DFT=T Ex+Corr=B3LYP ExCW=0 ScaHFX=  0.200000
 ScaDFX=  0.800000  0.720000  1.000000  0.810000 ScalE2=  1.000000  1.000000
 IRadAn=      5 IRanWt=     -1 IRanGd=            0 ICorTp=0 IEmpDi=  4
 NAtoms=   77 NActive=   22 NUniq=   22 SFac= 1.00D+00 NAtFMM=   60 NAOKFM=F Big=F
 Integral buffers will be    131072 words long.
 Regular integral format.
 Two-electron integral symmetry is turned off.
 Leave Link  301 at Sun Nov 25 19:48:16 2018, MaxMem=  2684354560 cpu:               2.5 elap:               0.2
 (Enter /panfs/pfs.local/work/caricato/m330c584/PANFS-WORK-MCARICATO/gdv_i09/gdv/l302.exe)
 NPDir=0 NMtPBC=     1 NCelOv=     1 NCel=       1 NClECP=     1 NCelD=      1
         NCelK=      1 NCelE2=     1 NClLst=     1 CellRange=     0.0.
 One-electron integrals computed using PRISM.
 NBasis=   265 RedAO= T EigKep=  2.42D-06  NBF=   265
 NBsUse=   265 1.00D-06 EigRej= -1.00D+00 NBFU=   265
 Precomputing XC quadrature grid using
 IXCGrd= 4 IRadAn=           5 IRanWt=          -1 IRanGd=           0 AccXCQ= 0.00D+00.
 Generated NRdTot=       0 NPtTot=           0 NUsed=           0 NTot=          32
 NSgBfM=   264   264   264   264   264 MxSgAt=    22 MxSgA2=    22.
 Leave Link  302 at Sun Nov 25 19:48:18 2018, MaxMem=  2684354560 cpu:              35.6 elap:               2.3
 (Enter /panfs/pfs.local/work/caricato/m330c584/PANFS-WORK-MCARICATO/gdv_i09/gdv/l303.exe)
 DipDrv:  MaxL=1.
 Leave Link  303 at Sun Nov 25 19:48:18 2018, MaxMem=  2684354560 cpu:               3.6 elap:               0.3
 (Enter /panfs/pfs.local/work/caricato/m330c584/PANFS-WORK-MCARICATO/gdv_i09/gdv/l308.exe)
 Leave Link  308 at Sun Nov 25 19:48:19 2018, MaxMem=  2684354560 cpu:               2.6 elap:               0.2
 (Enter /panfs/pfs.local/work/caricato/m330c584/PANFS-WORK-MCARICATO/gdv_i09/gdv/l401.exe)
 ExpMin= 4.38D-02 ExpMax= 5.48D+03 ExpMxC= 8.25D+02 IAcc=3 IRadAn=         5 AccDes= 0.00D+00
 Harris functional with IExCor=  402 and IRadAn=       5 diagonalized for initial guess.
 HarFok:  IExCor=  402 AccDes= 0.00D+00 IRadAn=         5 IDoV= 1 UseB2=F ITyADJ=14
 ICtDFT=  3500011 ScaDFX=  1.000000  1.000000  1.000000  1.000000
 FoFCou: FMM=F IPFlag=           0 FMFlag=      100000 FMFlg1=           0
         NFxFlg=           0 DoJE=T BraDBF=F KetDBF=T FulRan=T
         wScrn=  0.000000 ICntrl=       500 IOpCl=  0 I1Cent=   200000004 NGrid=           0
         NMat0=    1 NMatS0=      1 NMatT0=    0 NMatD0=    1 NMtDS0=    0 NMtDT0=    0
 Symmetry not used in FoFCou.
 Harris En= -555.467959477113    
 JPrj=0 DoOrth=F DoCkMO=F.
 Leave Link  401 at Sun Nov 25 19:48:23 2018, MaxMem=  2684354560 cpu:              61.7 elap:               3.9
 (Enter /panfs/pfs.local/work/caricato/m330c584/PANFS-WORK-MCARICATO/gdv_i09/gdv/l502.exe)
 Two-electron integral symmetry not used.
 Closed shell SCF:
 Using DIIS extrapolation, IDIIS=  1040.
 NGot=  2684354560 LenX=  2684204926 LenY=  2684134260
 Requested convergence on RMS density matrix=1.00D-08 within 128 cycles.
 Requested convergence on MAX density matrix=1.00D-06.
 Requested convergence on             energy=1.00D-06.
 No special actions if energy rises.
 Fock matrices will be formed incrementally for  20 cycles.

 Cycle   1  Pass 1  IDiag  1:
 FoFJK:  IHMeth= 1 ICntrl=       0 DoSepK=F KAlg= 0 I1Cent=           0 FoldK=F
 IRaf= 910000000 NMat=       1 IRICut=       1 DoRegI=T DoRafI=F ISym2E= 0 IDoP0=0 IntGTp=1.
 FoFCou: FMM=F IPFlag=           0 FMFlag=      100000 FMFlg1=           0
         NFxFlg=           0 DoJE=F BraDBF=F KetDBF=F FulRan=T
         wScrn=  0.000000 ICntrl=         0 IOpCl=  0 I1Cent=           0 NGrid=           0
         NMat0=    1 NMatS0=      1 NMatT0=    0 NMatD0=    1 NMtDS0=    0 NMtDT0=    0
 Symmetry not used in FoFCou.
 E= -554.926183443933    
 DIIS: error= 2.49D-02 at cycle   1 NSaved=   1.
 NSaved= 1 IEnMin= 1 EnMin= -554.926183443933     IErMin= 1 ErrMin= 2.49D-02
 ErrMax= 2.49D-02  0.00D+00 EMaxC= 1.00D-01 BMatC= 4.08D-01 BMatP= 4.08D-01
 IDIUse=3 WtCom= 7.51D-01 WtEn= 2.49D-01
 Coeff-Com:  0.100D+01
 Coeff-En:   0.100D+01
 Coeff:      0.100D+01
 Gap=     0.194 Goal=   None    Shift=    0.000
 GapD=    0.194 DampG=1.000 DampE=0.500 DampFc=0.5000 IDamp=-1.
 Damping current iteration by 5.00D-01
 RMSDP=6.14D-01 MaxDP=3.85D+01              OVMax= 9.49D-01

 Cycle   2  Pass 1  IDiag  1:
 RMSU=  2.97D-01    CP:  2.11D+00
 E= -553.737865494918     Delta-E=        1.188317949016 Rises=F Damp=T
 DIIS: error= 4.33D-02 at cycle   2 NSaved=   2.
 NSaved= 2 IEnMin= 1 EnMin= -554.926183443933     IErMin= 1 ErrMin= 2.49D-02
 ErrMax= 4.33D-02  0.00D+00 EMaxC= 1.00D-01 BMatC= 5.08D-01 BMatP= 4.08D-01
 IDIUse=2 WtCom= 0.00D+00 WtEn= 1.00D+00
 Coeff-En:   0.794D+00 0.206D+00
 Coeff:      0.794D+00 0.206D+00
 Gap=     0.004 Goal=   None    Shift=    0.000
 RMSDP=3.14D-01 MaxDP=1.80D+01 DE= 1.19D+00 OVMax= 9.83D-01

 Cycle   3  Pass 1  IDiag  1:
 RMSU=  8.55D-02    CP:  1.93D+00 -1.62D-02
 E= -555.041123723999     Delta-E=       -1.303258229082 Rises=F Damp=F
 DIIS: error= 2.52D-02 at cycle   3 NSaved=   3.
 NSaved= 3 IEnMin= 3 EnMin= -555.041123723999     IErMin= 1 ErrMin= 2.49D-02
 ErrMax= 2.52D-02  0.00D+00 EMaxC= 1.00D-01 BMatC= 3.19D-01 BMatP= 4.08D-01
 IDIUse=3 WtCom= 7.48D-01 WtEn= 2.52D-01
 Coeff-Com:  0.448D+00 0.927D-01 0.459D+00
 Coeff-En:   0.430D+00 0.000D+00 0.570D+00
 Coeff:      0.444D+00 0.693D-01 0.487D+00
 Gap=     0.066 Goal=   None    Shift=    0.000
 RMSDP=7.84D-02 MaxDP=5.12D+00 DE=-1.30D+00 OVMax= 2.11D-01

 Cycle   4  Pass 1  IDiag  1:
 RMSU=  2.33D-02    CP:  1.09D+00 -8.55D-03  4.63D-01
 E= -555.319844704016     Delta-E=       -0.278720980017 Rises=F Damp=F
 DIIS: error= 1.19D-02 at cycle   4 NSaved=   4.
 NSaved= 4 IEnMin= 4 EnMin= -555.319844704016     IErMin= 4 ErrMin= 1.19D-02
 ErrMax= 1.19D-02  0.00D+00 EMaxC= 1.00D-01 BMatC= 4.62D-02 BMatP= 3.19D-01
 IDIUse=3 WtCom= 8.81D-01 WtEn= 1.19D-01
 Coeff-Com:  0.210D+00 0.241D-01 0.311D+00 0.455D+00
 Coeff-En:   0.000D+00 0.000D+00 0.110D+00 0.890D+00
 Coeff:      0.185D+00 0.212D-01 0.287D+00 0.507D+00
 Gap=     0.083 Goal=   None    Shift=    0.000
 RMSDP=1.21D-02 MaxDP=5.29D-01 DE=-2.79D-01 OVMax= 1.16D-01

 Cycle   5  Pass 1  IDiag  1:
 RMSU=  9.57D-03    CP:  1.15D+00 -1.13D-02  4.03D-01  8.72D-01
 E= -555.360363491748     Delta-E=       -0.040518787732 Rises=F Damp=F
 DIIS: error= 4.52D-03 at cycle   5 NSaved=   5.
 NSaved= 5 IEnMin= 5 EnMin= -555.360363491748     IErMin= 5 ErrMin= 4.52D-03
 ErrMax= 4.52D-03  0.00D+00 EMaxC= 1.00D-01 BMatC= 8.73D-03 BMatP= 4.62D-02
 IDIUse=3 WtCom= 9.55D-01 WtEn= 4.52D-02
 Coeff-Com:  0.177D-01-0.544D-02 0.618D-01 0.327D+00 0.599D+00
 Coeff-En:   0.000D+00 0.000D+00 0.000D+00 0.208D+00 0.792D+00
 Coeff:      0.169D-01-0.520D-02 0.590D-01 0.321D+00 0.608D+00
 Gap=     0.077 Goal=   None    Shift=    0.000
 RMSDP=4.18D-03 MaxDP=2.62D-01 DE=-4.05D-02 OVMax= 4.23D-02

 Cycle   6  Pass 1  IDiag  1:
 RMSU=  2.00D-03    CP:  1.12D+00 -1.10D-02  4.09D-01  8.68D-01  6.91D-01
 E= -555.369757751660     Delta-E=       -0.009394259911 Rises=F Damp=F
 DIIS: error= 6.31D-04 at cycle   6 NSaved=   6.
 NSaved= 6 IEnMin= 6 EnMin= -555.369757751660     IErMin= 6 ErrMin= 6.31D-04
 ErrMax= 6.31D-04  0.00D+00 EMaxC= 1.00D-01 BMatC= 2.93D-04 BMatP= 8.73D-03
 IDIUse=3 WtCom= 9.94D-01 WtEn= 6.31D-03
 Coeff-Com:  0.244D-02-0.516D-02 0.111D-01 0.105D+00 0.272D+00 0.615D+00
 Coeff-En:   0.000D+00 0.000D+00 0.000D+00 0.000D+00 0.000D+00 0.100D+01
 Coeff:      0.242D-02-0.512D-02 0.111D-01 0.104D+00 0.271D+00 0.617D+00
 Gap=     0.079 Goal=   None    Shift=    0.000
 RMSDP=7.79D-04 MaxDP=6.62D-02 DE=-9.39D-03 OVMax= 5.82D-03

 Cycle   7  Pass 1  IDiag  1:
 RMSU=  4.16D-04    CP:  1.13D+00 -1.11D-02  4.12D-01  8.58D-01  7.07D-01
                    CP:  9.14D-01
 E= -555.369972984202     Delta-E=       -0.000215232542 Rises=F Damp=F
 DIIS: error= 5.07D-04 at cycle   7 NSaved=   7.
 NSaved= 7 IEnMin= 7 EnMin= -555.369972984202     IErMin= 7 ErrMin= 5.07D-04
 ErrMax= 5.07D-04  0.00D+00 EMaxC= 1.00D-01 BMatC= 5.95D-05 BMatP= 2.93D-04
 IDIUse=3 WtCom= 9.95D-01 WtEn= 5.07D-03
 Coeff-Com:  0.872D-03-0.393D-02-0.389D-03 0.212D-01 0.885D-01 0.353D+00
 Coeff-Com:  0.541D+00
 Coeff-En:   0.000D+00 0.000D+00 0.000D+00 0.000D+00 0.000D+00 0.986D-01
 Coeff-En:   0.901D+00
 Coeff:      0.867D-03-0.391D-02-0.387D-03 0.211D-01 0.880D-01 0.352D+00
 Coeff:      0.543D+00
 Gap=     0.080 Goal=   None    Shift=    0.000
 RMSDP=5.87D-04 MaxDP=2.76D-02 DE=-2.15D-04 OVMax= 3.71D-03

 Cycle   8  Pass 1  IDiag  1:
 RMSU=  1.88D-04    CP:  1.13D+00 -1.11D-02  4.06D-01  8.59D-01  7.34D-01
                    CP:  8.53D-01  7.83D-01
 E= -555.370037876725     Delta-E=       -0.000064892523 Rises=F Damp=F
 DIIS: error= 1.64D-04 at cycle   8 NSaved=   8.
 NSaved= 8 IEnMin= 8 EnMin= -555.370037876725     IErMin= 8 ErrMin= 1.64D-04
 ErrMax= 1.64D-04  0.00D+00 EMaxC= 1.00D-01 BMatC= 9.99D-06 BMatP= 5.95D-05
 IDIUse=3 WtCom= 9.98D-01 WtEn= 1.64D-03
 Coeff-Com:  0.189D-02-0.228D-02-0.541D-03-0.114D-02 0.121D-01 0.888D-01
 Coeff-Com:  0.284D+00 0.617D+00
 Coeff-En:   0.000D+00 0.000D+00 0.000D+00 0.000D+00 0.000D+00 0.000D+00
 Coeff-En:   0.000D+00 0.100D+01
 Coeff:      0.189D-02-0.228D-02-0.540D-03-0.114D-02 0.121D-01 0.887D-01
 Coeff:      0.283D+00 0.618D+00
 Gap=     0.080 Goal=   None    Shift=    0.000
 RMSDP=9.44D-05 MaxDP=5.57D-03 DE=-6.49D-05 OVMax= 7.64D-04

 Cycle   9  Pass 1  IDiag  1:
 RMSU=  5.42D-05    CP:  1.13D+00 -1.11D-02  4.06D-01  8.58D-01  7.35D-01
                    CP:  8.53D-01  8.46D-01  9.39D-01
 E= -555.370044186308     Delta-E=       -0.000006309583 Rises=F Damp=F
 DIIS: error= 1.01D-04 at cycle   9 NSaved=   9.
 NSaved= 9 IEnMin= 9 EnMin= -555.370044186308     IErMin= 9 ErrMin= 1.01D-04
 ErrMax= 1.01D-04  0.00D+00 EMaxC= 1.00D-01 BMatC= 2.19D-06 BMatP= 9.99D-06
 IDIUse=3 WtCom= 9.99D-01 WtEn= 1.01D-03
 Coeff-Com:  0.140D-02-0.874D-03-0.102D-03-0.647D-02-0.178D-01-0.552D-01
 Coeff-Com:  0.124D-01 0.308D+00 0.759D+00
 Coeff-En:   0.000D+00 0.000D+00 0.000D+00 0.000D+00 0.000D+00 0.000D+00
 Coeff-En:   0.000D+00 0.000D+00 0.100D+01
 Coeff:      0.140D-02-0.873D-03-0.102D-03-0.646D-02-0.177D-01-0.552D-01
 Coeff:      0.124D-01 0.308D+00 0.759D+00
 Gap=     0.080 Goal=   None    Shift=    0.000
 RMSDP=1.86D-04 MaxDP=1.15D-02 DE=-6.31D-06 OVMax= 1.57D-03

 Cycle  10  Pass 1  IDiag  1:
 RMSU=  5.79D-05    CP:  1.13D+00 -1.11D-02  4.04D-01  8.55D-01  7.35D-01
                    CP:  8.68D-01  8.39D-01  1.03D+00  8.60D-01
 E= -555.370047212294     Delta-E=       -0.000003025987 Rises=F Damp=F
 DIIS: error= 3.20D-05 at cycle  10 NSaved=  10.
 NSaved=10 IEnMin=10 EnMin= -555.370047212294     IErMin=10 ErrMin= 3.20D-05
 ErrMax= 3.20D-05  0.00D+00 EMaxC= 1.00D-01 BMatC= 3.35D-07 BMatP= 2.19D-06
 IDIUse=1 WtCom= 1.00D+00 WtEn= 0.00D+00
 Coeff-Com:  0.307D-03-0.871D-04 0.219D-03-0.114D-02-0.573D-02-0.298D-01
 Coeff-Com: -0.481D-01-0.844D-01 0.276D+00 0.893D+00
 Coeff:      0.307D-03-0.871D-04 0.219D-03-0.114D-02-0.573D-02-0.298D-01
 Coeff:     -0.481D-01-0.844D-01 0.276D+00 0.893D+00
 Gap=     0.080 Goal=   None    Shift=    0.000
 RMSDP=6.55D-05 MaxDP=3.23D-03 DE=-3.03D-06 OVMax= 6.13D-04

 Cycle  11  Pass 1  IDiag  1:
 RMSU=  2.64D-05    CP:  1.13D+00 -1.11D-02  4.04D-01  8.53D-01  7.34D-01
                    CP:  8.63D-01  8.65D-01  1.14D+00  1.14D+00  9.89D-01
 E= -555.370047519598     Delta-E=       -0.000000307304 Rises=F Damp=F
 DIIS: error= 1.39D-05 at cycle  11 NSaved=  11.
 NSaved=11 IEnMin=11 EnMin= -555.370047519598     IErMin=11 ErrMin= 1.39D-05
 ErrMax= 1.39D-05  0.00D+00 EMaxC= 1.00D-01 BMatC= 9.13D-08 BMatP= 3.35D-07
 IDIUse=1 WtCom= 1.00D+00 WtEn= 0.00D+00
 Coeff-Com:  0.661D-04 0.388D-05 0.123D-03 0.199D-03-0.624D-03-0.853D-02
 Coeff-Com: -0.225D-01-0.728D-01 0.114D+00 0.536D+00 0.454D+00
 Coeff:      0.661D-04 0.388D-05 0.123D-03 0.199D-03-0.624D-03-0.853D-02
 Coeff:     -0.225D-01-0.728D-01 0.114D+00 0.536D+00 0.454D+00
 Gap=     0.080 Goal=   None    Shift=    0.000
 RMSDP=1.49D-05 MaxDP=9.28D-04 DE=-3.07D-07 OVMax= 1.74D-04

 Cycle  12  Pass 1  IDiag  1:
 RMSU=  5.75D-06    CP:  1.13D+00 -1.11D-02  4.04D-01  8.53D-01  7.34D-01
                    CP:  8.62D-01  8.53D-01  1.12D+00  1.11D+00  1.12D+00
                    CP:  7.59D-01
 E= -555.370047595685     Delta-E=       -0.000000076087 Rises=F Damp=F
 DIIS: error= 6.18D-06 at cycle  12 NSaved=  12.
 NSaved=12 IEnMin=12 EnMin= -555.370047595685     IErMin=12 ErrMin= 6.18D-06
 ErrMax= 6.18D-06  0.00D+00 EMaxC= 1.00D-01 BMatC= 9.98D-09 BMatP= 9.13D-08
 IDIUse=1 WtCom= 1.00D+00 WtEn= 0.00D+00
 Coeff-Com: -0.149D-04 0.226D-04-0.202D-04 0.268D-03 0.736D-03 0.174D-02
 Coeff-Com:  0.102D-02-0.979D-02 0.339D-01 0.990D-01 0.167D+00 0.706D+00
 Coeff:     -0.149D-04 0.226D-04-0.202D-04 0.268D-03 0.736D-03 0.174D-02
 Coeff:      0.102D-02-0.979D-02 0.339D-01 0.990D-01 0.167D+00 0.706D+00
 Gap=     0.080 Goal=   None    Shift=    0.000
 RMSDP=8.99D-06 MaxDP=3.81D-04 DE=-7.61D-08 OVMax= 2.77D-05

 Cycle  13  Pass 1  IDiag  1:
 RMSU=  1.82D-06    CP:  1.13D+00 -1.11D-02  4.04D-01  8.53D-01  7.34D-01
                    CP:  8.62D-01  8.50D-01  1.11D+00  1.12D+00  1.11D+00
                    CP:  7.73D-01  1.06D+00
 E= -555.370047604955     Delta-E=       -0.000000009270 Rises=F Damp=F
 DIIS: error= 3.73D-06 at cycle  13 NSaved=  13.
 NSaved=13 IEnMin=13 EnMin= -555.370047604955     IErMin=13 ErrMin= 3.73D-06
 ErrMax= 3.73D-06  0.00D+00 EMaxC= 1.00D-01 BMatC= 3.61D-09 BMatP= 9.98D-09
 IDIUse=1 WtCom= 1.00D+00 WtEn= 0.00D+00
 Coeff-Com: -0.830D-05 0.118D-04-0.328D-04 0.107D-03 0.366D-03 0.162D-02
 Coeff-Com:  0.333D-02 0.585D-02 0.179D-01 0.171D-01 0.262D-01 0.169D+00
 Coeff-Com:  0.758D+00
 Coeff:     -0.830D-05 0.118D-04-0.328D-04 0.107D-03 0.366D-03 0.162D-02
 Coeff:      0.333D-02 0.585D-02 0.179D-01 0.171D-01 0.262D-01 0.169D+00
 Coeff:      0.758D+00
 Gap=     0.080 Goal=   None    Shift=    0.000
 RMSDP=4.52D-06 MaxDP=2.06D-04 DE=-9.27D-09 OVMax= 2.45D-05

 Cycle  14  Pass 1  IDiag  1:
 RMSU=  6.46D-07    CP:  1.13D+00 -1.11D-02  4.04D-01  8.53D-01  7.34D-01
                    CP:  8.63D-01  8.50D-01  1.11D+00  1.11D+00  1.10D+00
                    CP:  7.67D-01  1.09D+00  1.23D+00
 E= -555.370047608418     Delta-E=       -0.000000003462 Rises=F Damp=F
 DIIS: error= 1.77D-06 at cycle  14 NSaved=  14.
 NSaved=14 IEnMin=14 EnMin= -555.370047608418     IErMin=14 ErrMin= 1.77D-06
 ErrMax= 1.77D-06  0.00D+00 EMaxC= 1.00D-01 BMatC= 8.89D-10 BMatP= 3.61D-09
 IDIUse=1 WtCom= 1.00D+00 WtEn= 0.00D+00
 Coeff-Com: -0.885D-06 0.402D-05-0.213D-04-0.204D-04-0.419D-04 0.362D-03
 Coeff-Com:  0.182D-02 0.743D-02 0.739D-02-0.572D-02-0.300D-01-0.158D+00
 Coeff-Com:  0.432D+00 0.745D+00
 Coeff:     -0.885D-06 0.402D-05-0.213D-04-0.204D-04-0.419D-04 0.362D-03
 Coeff:      0.182D-02 0.743D-02 0.739D-02-0.572D-02-0.300D-01-0.158D+00
 Coeff:      0.432D+00 0.745D+00
 Gap=     0.080 Goal=   None    Shift=    0.000
 RMSDP=3.20D-06 MaxDP=1.32D-04 DE=-3.46D-09 OVMax= 1.74D-05

 Cycle  15  Pass 1  IDiag  1:
 RMSU=  3.97D-07    CP:  1.13D+00 -1.11D-02  4.04D-01  8.53D-01  7.34D-01
                    CP:  8.62D-01  8.50D-01  1.11D+00  1.11D+00  1.09D+00
                    CP:  7.64D-01  1.10D+00  1.45D+00  1.03D+00
 E= -555.370047609484     Delta-E=       -0.000000001066 Rises=F Damp=F
 DIIS: error= 5.55D-07 at cycle  15 NSaved=  15.
 NSaved=15 IEnMin=15 EnMin= -555.370047609484     IErMin=15 ErrMin= 5.55D-07
 ErrMax= 5.55D-07  0.00D+00 EMaxC= 1.00D-01 BMatC= 7.93D-11 BMatP= 8.89D-10
 IDIUse=1 WtCom= 1.00D+00 WtEn= 0.00D+00
 Coeff-Com: -0.121D-06 0.153D-05-0.729D-05-0.154D-04-0.499D-04-0.149D-04
 Coeff-Com:  0.461D-03 0.255D-02 0.326D-02 0.861D-03-0.998D-02-0.851D-01
 Coeff-Com:  0.853D-01 0.299D+00 0.704D+00
 Coeff:     -0.121D-06 0.153D-05-0.729D-05-0.154D-04-0.499D-04-0.149D-04
 Coeff:      0.461D-03 0.255D-02 0.326D-02 0.861D-03-0.998D-02-0.851D-01
 Coeff:      0.853D-01 0.299D+00 0.704D+00
 Gap=     0.080 Goal=   None    Shift=    0.000
 RMSDP=7.69D-07 MaxDP=3.67D-05 DE=-1.07D-09 OVMax= 4.84D-06

 Cycle  16  Pass 1  IDiag  1:
 RMSU=  1.43D-07    CP:  1.13D+00 -1.11D-02  4.04D-01  8.53D-01  7.34D-01
                    CP:  8.63D-01  8.50D-01  1.11D+00  1.11D+00  1.09D+00
                    CP:  7.63D-01  1.10D+00  1.50D+00  1.25D+00  8.07D-01
 E= -555.370047609555     Delta-E=       -0.000000000071 Rises=F Damp=F
 DIIS: error= 2.24D-07 at cycle  16 NSaved=  16.
 NSaved=16 IEnMin=16 EnMin= -555.370047609555     IErMin=16 ErrMin= 2.24D-07
 ErrMax= 2.24D-07  0.00D+00 EMaxC= 1.00D-01 BMatC= 1.53D-11 BMatP= 7.93D-11
 IDIUse=1 WtCom= 1.00D+00 WtEn= 0.00D+00
 Coeff-Com:  0.112D-06 0.106D-06 0.740D-06-0.326D-05-0.189D-04-0.102D-03
 Coeff-Com: -0.159D-03-0.259D-03 0.501D-03 0.286D-02 0.274D-02-0.152D-01
 Coeff-Com: -0.706D-01-0.200D-01 0.483D+00 0.618D+00
 Coeff:      0.112D-06 0.106D-06 0.740D-06-0.326D-05-0.189D-04-0.102D-03
 Coeff:     -0.159D-03-0.259D-03 0.501D-03 0.286D-02 0.274D-02-0.152D-01
 Coeff:     -0.706D-01-0.200D-01 0.483D+00 0.618D+00
 Gap=     0.080 Goal=   None    Shift=    0.000
 RMSDP=4.41D-07 MaxDP=1.89D-05 DE=-7.07D-11 OVMax= 3.04D-06

 Cycle  17  Pass 1  IDiag  1:
 RMSU=  5.94D-08    CP:  1.13D+00 -1.11D-02  4.04D-01  8.53D-01  7.34D-01
                    CP:  8.63D-01  8.50D-01  1.11D+00  1.11D+00  1.09D+00
                    CP:  7.63D-01  1.09D+00  1.52D+00  1.31D+00  1.00D+00
                    CP:  8.26D-01
 E= -555.370047609582     Delta-E=       -0.000000000027 Rises=F Damp=F
 DIIS: error= 2.11D-08 at cycle  17 NSaved=  17.
 NSaved=17 IEnMin=17 EnMin= -555.370047609582     IErMin=17 ErrMin= 2.11D-08
 ErrMax= 2.11D-08  0.00D+00 EMaxC= 1.00D-01 BMatC= 1.87D-13 BMatP= 1.53D-11
 IDIUse=1 WtCom= 1.00D+00 WtEn= 0.00D+00
 Coeff-Com: -0.168D-07 0.230D-09 0.628D-06 0.126D-06-0.328D-05-0.355D-04
 Coeff-Com: -0.816D-04-0.274D-03 0.556D-04 0.110D-02 0.203D-02 0.485D-03
 Coeff-Com: -0.279D-01-0.293D-01 0.116D+00 0.227D+00 0.711D+00
 Coeff:     -0.168D-07 0.230D-09 0.628D-06 0.126D-06-0.328D-05-0.355D-04
 Coeff:     -0.816D-04-0.274D-03 0.556D-04 0.110D-02 0.203D-02 0.485D-03
 Coeff:     -0.279D-01-0.293D-01 0.116D+00 0.227D+00 0.711D+00
 Gap=     0.080 Goal=   None    Shift=    0.000
 RMSDP=3.65D-08 MaxDP=2.00D-06 DE=-2.73D-11 OVMax= 2.64D-07

 Cycle  18  Pass 1  IDiag  1:
 RMSU=  1.76D-08    CP:  1.13D+00 -1.11D-02  4.04D-01  8.53D-01  7.34D-01
                    CP:  8.63D-01  8.50D-01  1.11D+00  1.11D+00  1.09D+00
                    CP:  7.63D-01  1.09D+00  1.52D+00  1.32D+00  1.02D+00
                    CP:  8.22D-01  7.52D-01
 E= -555.370047609581     Delta-E=        0.000000000001 Rises=F Damp=F
 DIIS: error= 8.39D-09 at cycle  18 NSaved=  18.
 NSaved=18 IEnMin=17 EnMin= -555.370047609582     IErMin=18 ErrMin= 8.39D-09
 ErrMax= 8.39D-09  0.00D+00 EMaxC= 1.00D-01 BMatC= 3.50D-14 BMatP= 1.87D-13
 IDIUse=1 WtCom= 1.00D+00 WtEn= 0.00D+00
 Coeff-Com: -0.164D-07-0.269D-08 0.335D-06 0.351D-06-0.351D-06-0.134D-04
 Coeff-Com: -0.374D-04-0.153D-03-0.164D-04 0.409D-03 0.103D-02 0.188D-02
 Coeff-Com: -0.104D-01-0.169D-01 0.237D-01 0.794D-01 0.406D+00 0.515D+00
 Coeff:     -0.164D-07-0.269D-08 0.335D-06 0.351D-06-0.351D-06-0.134D-04
 Coeff:     -0.374D-04-0.153D-03-0.164D-04 0.409D-03 0.103D-02 0.188D-02
 Coeff:     -0.104D-01-0.169D-01 0.237D-01 0.794D-01 0.406D+00 0.515D+00
 Gap=     0.080 Goal=   None    Shift=    0.000
 RMSDP=1.03D-08 MaxDP=5.58D-07 DE= 9.09D-13 OVMax= 9.79D-08

 Cycle  19  Pass 1  IDiag  1:
 RMSU=  4.87D-09    CP:  1.13D+00 -1.11D-02  4.04D-01  8.53D-01  7.34D-01
                    CP:  8.63D-01  8.50D-01  1.11D+00  1.11D+00  1.09D+00
                    CP:  7.63D-01  1.09D+00  1.52D+00  1.32D+00  1.02D+00
                    CP:  8.27D-01  8.43D-01  7.08D-01
 E= -555.370047609562     Delta-E=        0.000000000019 Rises=F Damp=F
 DIIS: error= 2.25D-09 at cycle  19 NSaved=  19.
 NSaved=19 IEnMin=17 EnMin= -555.370047609582     IErMin=19 ErrMin= 2.25D-09
 ErrMax= 2.25D-09  0.00D+00 EMaxC= 1.00D-01 BMatC= 2.69D-15 BMatP= 3.50D-14
 IDIUse=1 WtCom= 1.00D+00 WtEn= 0.00D+00
 Coeff-Com: -0.238D-08-0.337D-08 0.834D-07 0.130D-06 0.281D-06-0.199D-05
 Coeff-Com: -0.692D-05-0.369D-04-0.169D-04 0.421D-04 0.226D-03 0.747D-03
 Coeff-Com: -0.150D-02-0.443D-02-0.255D-02 0.107D-01 0.109D+00 0.257D+00
 Coeff-Com:  0.630D+00
 Coeff:     -0.238D-08-0.337D-08 0.834D-07 0.130D-06 0.281D-06-0.199D-05
 Coeff:     -0.692D-05-0.369D-04-0.169D-04 0.421D-04 0.226D-03 0.747D-03
 Coeff:     -0.150D-02-0.443D-02-0.255D-02 0.107D-01 0.109D+00 0.257D+00
 Coeff:      0.630D+00
 Gap=     0.080 Goal=   None    Shift=    0.000
 RMSDP=4.28D-09 MaxDP=2.78D-07 DE= 1.89D-11 OVMax= 3.68D-08

 SCF Done:  E(RB3LYP) =  -555.370047610     A.U. after   19 cycles
            NFock= 19  Conv=0.43D-08     -V/T= 2.0107
 KE= 5.494766534329D+02 PE=-2.682142113014D+03 EE= 8.853148686297D+02
 Leave Link  502 at Sun Nov 25 19:49:42 2018, MaxMem=  2684354560 cpu:            1267.2 elap:              79.3
 (Enter /panfs/pfs.local/work/caricato/m330c584/PANFS-WORK-MCARICATO/gdv_i09/gdv/l801.exe)
 DoSCS=F DFT=T ScalE2(SS,OS)=  1.000000  1.000000
 ExpMin= 4.38D-02 ExpMax= 5.48D+03 ExpMxC= 8.25D+02 IAcc=3 IRadAn=         5 AccDes= 0.00D+00
 HarFok:  IExCor=  205 AccDes= 0.00D+00 IRadAn=         5 IDoV=-2 UseB2=F ITyADJ=14
 ICtDFT= 12500011 ScaDFX=  1.000000  1.000000  1.000000  1.000000
 Largest valence mixing into a core orbital is  5.67D-05
 Largest core mixing into a valence orbital is  1.27D-05
 Range of M.O.s used for correlation:    14   265
 NBasis=   265 NAE=    45 NBE=    45 NFC=    13 NFV=     0
 NROrb=    252 NOA=    32 NOB=    32 NVA=   220 NVB=   220

 **** Warning!!: The largest alpha MO coefficient is  0.13824539D+03


 **** Warning!!: The smallest alpha delta epsilon is  0.80056421D-01

 Leave Link  801 at Sun Nov 25 19:49:44 2018, MaxMem=  2684354560 cpu:              20.1 elap:               1.3
 (Enter /panfs/pfs.local/work/caricato/m330c584/PANFS-WORK-MCARICATO/gdv_i09/gdv/l914.exe)
 RHF ground state
 Two-electron integral symmetry not used.
 MDV=  2684354560 DFT=T DoStab=F Mixed=T DoRPA=T DoScal=F NonHer=T
 Making orbital integer symmetry assigments:
   400 initial guesses have been made.
 Convergence on wavefunction:    0.001000000000000
 Davidson Disk Diagonalization:  ConvIn= 1.00D-03 SkipCon=T Conv= 1.00D-03.
 Max sub-space:  6000 roots to seek:   400 dimension of matrix:        14080
 Iteration     1 Dimension   400 NMult     0 NNew    400
 CISAX will form   400 AO SS matrices at one time.
 NMat=   400 NSing=   400 JSym2X= 0.
 FoFJK:  IHMeth= 1 ICntrl=       0 DoSepK=F KAlg= 0 I1Cent=           0 FoldK=F
 IRaf= 910000000 NMat=     800 IRICut=    1000 DoRegI=T DoRafI=T ISym2E= 0 IDoP0=0 IntGTp=1.
 FoFCou: FMM=F IPFlag=           0 FMFlag=      100000 FMFlg1=           0
         NFxFlg=           0 DoJE=F BraDBF=F KetDBF=F FulRan=T
         wScrn=  0.000000 ICntrl=         0 IOpCl=  0 I1Cent=           0 NGrid=           0
         NMat0=  800 NMatS0=    400 NMatT0=    0 NMatD0=  800 NMtDS0=    0 NMtDT0=    0
 Symmetry not used in FoFCou.
 Raff kept on since  91.39% of shell-pairs survive, threshold=   0.20 IRatSp=91.
 New state     13 was old state     16
 New state     14 was old state     15
 New state     15 was old state     13
 New state     16 was old state     17
 New state     17 was old state     18
 New state     18 was old state     14
 New state     19 was old state     27
 New state     20 was old state     22
 New state     21 was old state     20
 New state     22 was old state     21
 New state     23 was old state     19
 New state     24 was old state     26
 New state     25 was old state     24
 New state     26 was old state     25
 New state     27 was old state     32
 New state     28 was old state     23
 New state     29 was old state     28
 New state     30 was old state     33
 New state     31 was old state     29
 New state     32 was old state     30
 New state     33 was old state     35
 New state     34 was old state     31
 New state     35 was old state     34
 New state     36 was old state     39
 New state     38 was old state     36
 New state     39 was old state     42
 New state     40 was old state     43
 New state     41 was old state     38
 New state     42 was old state     41
 New state     43 was old state     45
 New state     44 was old state     46
 New state     45 was old state     49
 New state     46 was old state     48
 New state     47 was old state     50
 New state     48 was old state     51
 New state     49 was old state     52
 New state     50 was old state     53
 New state     51 was old state     64
 New state     52 was old state     63
 New state     53 was old state     54
 New state     54 was old state     58
 New state     55 was old state     47
 New state     56 was old state     55
 New state     57 was old state     61
 New state     58 was old state     62
 New state     60 was old state     56
 New state     61 was old state     79
 New state     62 was old state     60
 New state     63 was old state     57
 New state     64 was old state     65
 New state     65 was old state     86
 New state     67 was old state     71
 New state     69 was old state     76
 New state     70 was old state     69
 New state     71 was old state     73
 New state     72 was old state     67
 New state     73 was old state     75
 New state     75 was old state     72
 New state     76 was old state     78
 New state     78 was old state     81
 New state     79 was old state     92
 New state     80 was old state     88
 New state     81 was old state     80
 New state     82 was old state     87
 New state     83 was old state     82
 New state     84 was old state     83
 New state     85 was old state     84
 New state     86 was old state     91
 New state     87 was old state     89
 New state     88 was old state     90
 New state     89 was old state     93
 New state     90 was old state     85
 New state     91 was old state     95
 New state     92 was old state    114
 New state     93 was old state     94
 New state     94 was old state     96
 New state     95 was old state    104
 New state     96 was old state     98
 New state     97 was old state    100
 New state     98 was old state    132
 New state     99 was old state    110
 New state    100 was old state     99
 Excitation Energies [eV] at current iteration:
 Root      1 :     2.110093138748563
 Root      2 :     2.469574354570834
 Root      3 :     2.537788769682411
 Root      4 :     3.457472210573017
 Root      5 :     3.535979384333303
 Root      6 :     3.580024263226114
 Root      7 :     3.846093572884854
 Root      8 :     4.003199120606020
 Root      9 :     4.202568591093065
 Root     10 :     4.429110817647187
 Root     11 :     4.484484791086658
 Root     12 :     4.527741064124736
 Root     13 :     4.630493811406272
 Root     14 :     4.748991444594298
 Root     15 :     4.823600311956039
 Root     16 :     4.825213775669087
 Root     17 :     4.909469047883452
 Root     18 :     4.964595706931966
 Root     19 :     5.055976375575583
 Root     20 :     5.127961538444024
 Root     21 :     5.204502166739113
 Root     22 :     5.250144973724191
 Root     23 :     5.285294592749564
 Root     24 :     5.443314601222334
 Root     25 :     5.535248676001305
 Root     26 :     5.538217878422672
 Root     27 :     5.586358773484944
 Root     28 :     5.677723627347264
 Root     29 :     5.851780516758193
 Root     30 :     5.876130343755758
 Root     31 :     5.923280384548915
 Root     32 :     5.929028515625520
 Root     33 :     5.943424117603120
 Root     34 :     5.993652604767903
 Root     35 :     6.081102513223484
 Root     36 :     6.090052242694965
 Root     37 :     6.157325263755934
 Root     38 :     6.188475589495356
 Root     39 :     6.202588606662732
 Root     40 :     6.238439178434220
 Root     41 :     6.245634132172277
 Root     42 :     6.256306280376117
 Root     43 :     6.379499036371965
 Root     44 :     6.400596858493521
 Root     45 :     6.545640527259954
 Root     46 :     6.592759013501193
 Root     47 :     6.665638066493788
 Root     48 :     6.704208262461774
 Root     49 :     6.739210793067188
 Root     50 :     6.784867053622862
 Root     51 :     6.799459541929407
 Root     52 :     6.854457958182595
 Root     53 :     6.898466547081595
 Root     54 :     6.919747333774997
 Root     55 :     6.946418530869315
 Root     56 :     6.963998932641839
 Root     57 :     6.981397430741682
 Root     58 :     7.000150131031526
 Root     59 :     7.029505453106037
 Root     60 :     7.067655718977867
 Root     61 :     7.091152062461453
 Root     62 :     7.116653176682460
 Root     63 :     7.146299143969035
 Root     64 :     7.192487074929120
 Root     65 :     7.223306753527549
 Root     66 :     7.253983617675316
 Root     67 :     7.269067380232984
 Root     68 :     7.278063318548710
 Root     69 :     7.342234692654871
 Root     70 :     7.373576013384031
 Root     71 :     7.399967672408068
 Root     72 :     7.410408849979236
 Root     73 :     7.495351199637221
 Root     74 :     7.511507961374511
 Root     75 :     7.521915479217173
 Root     76 :     7.549042137830306
 Root     77 :     7.568134452509189
 Root     78 :     7.588418642085180
 Root     79 :     7.600197604589546
 Root     80 :     7.640652202399441
 Root     81 :     7.661329568463809
 Root     82 :     7.723952840211527
 Root     83 :     7.753807213915677
 Root     84 :     7.783728065204735
 Root     85 :     7.800719927282630
 Root     86 :     7.846239724587178
 Root     87 :     7.869715049903113
 Root     88 :     7.932038473873824
 Root     89 :     7.938893191375698
 Root     90 :     7.944589855760892
 Root     91 :     7.963890248922630
 Root     92 :     7.974420503626822
 Root     93 :     8.007894450091147
 Root     94 :     8.035641825479901
 Root     95 :     8.052961167778342
 Root     96 :     8.084782091952023
 Root     97 :     8.116179170953661
 Root     98 :     8.119235846041262
 Root     99 :     8.130923835437711
 Root    100 :     8.169695318823850
 Root    101 :     8.181667862241833
 Root    102 :     8.189023119093891
 Root    103 :     8.236733390183725
 Root    104 :     8.303158265743502
 Root    105 :     8.311025771016773
 Root    106 :     8.330465200939429
 Root    107 :     8.375132182545869
 Root    108 :     8.380118391895515
 Root    109 :     8.388256600654845
 Root    110 :     8.409197295859705
 Root    111 :     8.425467676420070
 Root    112 :     8.430871152054522
 Root    113 :     8.467416831203632
 Root    114 :     8.475913349270302
 Root    115 :     8.500205987945408
 Root    116 :     8.526085758533609
 Root    117 :     8.541079247609387
 Root    118 :     8.545519777039965
 Root    119 :     8.560218070887391
 Root    120 :     8.564025400466425
 Root    121 :     8.576497483832579
 Root    122 :     8.583178390886665
 Root    123 :     8.587976277132832
 Root    124 :     8.645923737684267
 Root    125 :     8.654832551017128
 Root    126 :     8.666217835514832
 Root    127 :     8.682459147144463
 Root    128 :     8.704871516663355
 Root    129 :     8.732381583050847
 Root    130 :     8.763730359400370
 Root    131 :     8.772054859193938
 Root    132 :     8.796329817391104
 Root    133 :     8.823202332166561
 Root    134 :     8.833803144238939
 Root    135 :     8.853979828481997
 Root    136 :     8.859996170547154
 Root    137 :     8.880483784033764
 Root    138 :     8.890945441359110
 Root    139 :     8.904823383890356
 Root    140 :     8.916020788970650
 Root    141 :     8.955348946065463
 Root    142 :     8.964064815628667
 Root    143 :     8.992625291014162
 Root    144 :     9.013752682729001
 Root    145 :     9.026415220359706
 Root    146 :     9.032280555081345
 Root    147 :     9.041726497546621
 Root    148 :     9.056508890091781
 Root    149 :     9.060440798737371
 Root    150 :     9.075931188217922
 Root    151 :     9.082691631681838
 Root    152 :     9.119859637251167
 Root    153 :     9.134551386734419
 Root    154 :     9.140372636913655
 Root    155 :     9.198975348257655
 Root    156 :     9.206008881871085
 Root    157 :     9.239619324663018
 Root    158 :     9.265047392767746
 Root    159 :     9.289438507988615
 Root    160 :     9.297969802763353
 Root    161 :     9.321724723983488
 Root    162 :     9.341752757795991
 Root    163 :     9.343390072345814
 Root    164 :     9.350056468131569
 Root    165 :     9.374692882210420
 Root    166 :     9.385703915181869
 Root    167 :     9.398079568815575
 Root    168 :     9.408380256458260
 Root    169 :     9.418001525811583
 Root    170 :     9.421527274290918
 Root    171 :     9.441933142850576
 Root    172 :     9.449567462220438
 Root    173 :     9.458429484085594
 Root    174 :     9.495952062281845
 Root    175 :     9.509916051291377
 Root    176 :     9.522320570616564
 Root    177 :     9.569455837248832
 Root    178 :     9.575618408886131
 Root    179 :     9.578878606314333
 Root    180 :     9.590813140299959
 Root    181 :     9.602312234149714
 Root    182 :     9.630468965880047
 Root    183 :     9.642469154457908
 Root    184 :     9.652250912780424
 Root    185 :     9.662341274748547
 Root    186 :     9.675638486642843
 Root    187 :     9.694218540493349
 Root    188 :     9.706688883596934
 Root    189 :     9.722460198694035
 Root    190 :     9.745325722850383
 Root    191 :     9.756760489861957
 Root    192 :     9.767238222246695
 Root    193 :     9.791483898823616
 Root    194 :     9.799880785179560
 Root    195 :     9.822559532717907
 Root    196 :     9.831932161844021
 Root    197 :     9.857868492977023
 Root    198 :     9.870813358278195
 Root    199 :     9.877093159174086
 Root    200 :     9.897253344918550
 Root    201 :     9.909463615709464
 Root    202 :     9.926789831744928
 Root    203 :     9.939206270457026
 Root    204 :     9.946366553592190
 Root    205 :     9.950763816630163
 Root    206 :     9.960921264495990
 Root    207 :     9.972859662249208
 Root    208 :     9.991970511091566
 Root    209 :    10.004996820845120
 Root    210 :    10.014960910274920
 Root    211 :    10.019863441166000
 Root    212 :    10.027472621195040
 Root    213 :    10.040899149636280
 Root    214 :    10.048274597259290
 Root    215 :    10.059401777533000
 Root    216 :    10.068771312257860
 Root    217 :    10.077849808989290
 Root    218 :    10.098645253480130
 Root    219 :    10.106308504615050
 Root    220 :    10.122986779854480
 Root    221 :    10.137438680801520
 Root    222 :    10.153864011773110
 Root    223 :    10.175592122184840
 Root    224 :    10.188364491737880
 Root    225 :    10.196861807717980
 Root    226 :    10.214176023950750
 Root    227 :    10.225611311610200
 Root    228 :    10.238021573438810
 Root    229 :    10.262440946515690
 Root    230 :    10.279537390654640
 Root    231 :    10.289053928383410
 Root    232 :    10.298319000235160
 Root    233 :    10.309027897360720
 Root    234 :    10.315160482328540
 Root    235 :    10.324711772119730
 Root    236 :    10.339386724797750
 Root    237 :    10.354711119362490
 Root    238 :    10.369538030942660
 Root    239 :    10.381442329526130
 Root    240 :    10.391614019955740
 Root    241 :    10.397928642720840
 Root    242 :    10.411453909428170
 Root    243 :    10.424938123338760
 Root    244 :    10.437547526330990
 Root    245 :    10.447216494306610
 Root    246 :    10.462521813114550
 Root    247 :    10.470241659677970
 Root    248 :    10.491647323139120
 Root    249 :    10.497083047183470
 Root    250 :    10.497908036137980
 Root    251 :    10.509040726905910
 Root    252 :    10.510970075284970
 Root    253 :    10.516262606942830
 Root    254 :    10.522252426598570
 Root    255 :    10.533737903602160
 Root    256 :    10.552492739693840
 Root    257 :    10.567009839283020
 Root    258 :    10.573694256421570
 Root    259 :    10.575492850003540
 Root    260 :    10.580364199030360
 Root    261 :    10.600497045796610
 Root    262 :    10.642704575075410
 Root    263 :    10.647571650968600
 Root    264 :    10.668590122290560
 Root    265 :    10.702884469668840
 Root    266 :    10.711890021614790
 Root    267 :    10.724343855508020
 Root    268 :    10.737943744509150
 Root    269 :    10.748242153554620
 Root    270 :    10.752060431807330
 Root    271 :    10.763077040014500
 Root    272 :    10.770150548686400
 Root    273 :    10.775516488766780
 Root    274 :    10.787258891205710
 Root    275 :    10.793661169913120
 Root    276 :    10.798586359510000
 Root    277 :    10.802402670247440
 Root    278 :    10.823063481389870
 Root    279 :    10.830317978731020
 Root    280 :    10.834868216711550
 Root    281 :    10.856616913722200
 Root    282 :    10.860724175169490
 Root    283 :    10.886890003929540
 Root    284 :    10.901885915038950
 Root    285 :    10.924452223105920
 Root    286 :    10.928533946088600
 Root    287 :    10.933997114883930
 Root    288 :    10.943499040243490
 Root    289 :    10.951668880537480
 Root    290 :    10.966647906684750
 Root    291 :    10.972454216305000
 Root    292 :    10.980992669075760
 Root    293 :    10.989476955168720
 Root    294 :    10.997599999295810
 Root    295 :    11.008226630046530
 Root    296 :    11.012039170611800
 Root    297 :    11.018698738880280
 Root    298 :    11.032906109702970
 Root    299 :    11.048455147940690
 Root    300 :    11.063943367467430
 Root    301 :    11.065885012436050
 Root    302 :    11.077905868866380
 Root    303 :    11.084957697809290
 Root    304 :    11.096241850865420
 Root    305 :    11.102211176163700
 Root    306 :    11.124128772196740
 Root    307 :    11.133683191255870
 Root    308 :    11.135024532086330
 Root    309 :    11.137968982505390
 Root    310 :    11.152965039401470
 Root    311 :    11.162510931344170
 Root    312 :    11.173124992728490
 Root    313 :    11.182178672956850
 Root    314 :    11.186370256333520
 Root    315 :    11.196540666587880
 Root    316 :    11.206912652310040
 Root    317 :    11.221462712993140
 Root    318 :    11.231739375467140
 Root    319 :    11.235103777004730
 Root    320 :    11.240932183894480
 Root    321 :    11.252753918741460
 Root    322 :    11.260168036167110
 Root    323 :    11.273711699607620
 Root    324 :    11.276960073130030
 Root    325 :    11.289347543873100
 Root    326 :    11.301786440500560
 Root    327 :    11.310606106957340
 Root    328 :    11.331112060426870
 Root    329 :    11.335747451130330
 Root    330 :    11.339013130071620
 Root    331 :    11.341142245018530
 Root    332 :    11.352231738399540
 Root    333 :    11.365669593836100
 Root    334 :    11.377081038350380
 Root    335 :    11.390571263917610
 Root    336 :    11.396008251359010
 Root    337 :    11.417257181075540
 Root    338 :    11.421437319656870
 Root    339 :    11.434004983898610
 Root    340 :    11.449999049452930
 Root    341 :    11.454549621410150
 Root    342 :    11.473263909136750
 Root    343 :    11.482874181819770
 Root    344 :    11.488729841681970
 Root    345 :    11.513978692143030
 Root    346 :    11.519665767775750
 Root    347 :    11.525995062799790
 Root    348 :    11.537587348381360
 Root    349 :    11.552935453371260
 Root    350 :    11.561020389604370
 Root    351 :    11.567590553035950
 Root    352 :    11.575762015661400
 Root    353 :    11.599465455146070
 Root    354 :    11.608871322722520
 Root    355 :    11.618457488126440
 Root    356 :    11.621925888566780
 Root    357 :    11.630874690401620
 Root    358 :    11.642154334722020
 Root    359 :    11.660846902301050
 Root    360 :    11.664691500010750
 Root    361 :    11.679347055090840
 Root    362 :    11.708541266568560
 Root    363 :    11.719003993277230
 Root    364 :    11.731538107914370
 Root    365 :    11.752066193192100
 Root    366 :    11.758138115688520
 Root    367 :    11.766213534557290
 Root    368 :    11.775073010050890
 Root    369 :    11.781542180798660
 Root    370 :    11.802401830112950
 Root    371 :    11.805153036738750
 Root    372 :    11.811696450497640
 Root    373 :    11.825052819609650
 Root    374 :    11.834710221886880
 Root    375 :    11.847964855716930
 Root    376 :    11.867240898129640
 Root    377 :    11.870085839507780
 Root    378 :    11.872620650081700
 Root    379 :    11.880309651614220
 Root    380 :    11.893758213149210
 Root    381 :    11.910371080067370
 Root    382 :    11.930835948182850
 Root    383 :    11.936266420139090
 Root    384 :    11.945983379181000
 Root    385 :    11.954771876088260
 Root    386 :    11.962061735368800
 Root    387 :    11.971292346819350
 Root    388 :    11.984051390831850
 Root    389 :    11.988687368003260
 Root    390 :    12.002550142180640
 Root    391 :    12.023724212122420
 Root    392 :    12.033488210022010
 Root    393 :    12.049247696317830
 Root    394 :    12.062934587212060
 Root    395 :    12.081228577831190
 Root    396 :    12.126949624279230
 Root    397 :    12.351195299567860
 Root    398 :    12.370605086535090
 Root    399 :    12.495250570206020
 Root    400 :    12.556359819748900
 Iteration     2 Dimension   600 NMult   400 NNew    200
 CISAX will form   200 AO SS matrices at one time.
 NMat=   200 NSing=   200 JSym2X= 0.
 Root      1 not converged, maximum delta is    0.029165388051947
 Root      2 not converged, maximum delta is    0.017708943111821
 Root      3 not converged, maximum delta is    0.021214337643375
 Root      4 not converged, maximum delta is    0.014515605441107
 Root      5 not converged, maximum delta is    0.008339558177484
 Root      6 not converged, maximum delta is    0.022337474652401
 Root      7 not converged, maximum delta is    0.043498780493733
 Root      8 not converged, maximum delta is    0.174039150545950
 Root      9 not converged, maximum delta is    0.024851151725424
 Root     10 not converged, maximum delta is    0.146349825262426
 Root     11 not converged, maximum delta is    0.131703771791870
 Root     12 not converged, maximum delta is    0.021170786916655
 Root     13 not converged, maximum delta is    0.041177670759080
 Root     14 not converged, maximum delta is    0.044588608099959
 New state     15 was old state     16
 Root     15 not converged, maximum delta is    0.279485350039433
 New state     16 was old state     15
 Root     16 not converged, maximum delta is    0.173187603612765
 New state     17 was old state     18
 Root     17 not converged, maximum delta is    0.495817245112416
 New state     18 was old state     17
 Root     18 not converged, maximum delta is    0.253064429606381
 Root     19 not converged, maximum delta is    0.025005338302327
 Root     20 not converged, maximum delta is    0.012440340099608
 Root     21 not converged, maximum delta is    0.248045454834835
 Root     22 not converged, maximum delta is    0.310484328220982
 Root     23 not converged, maximum delta is    0.071786666535208
 New state     24 was old state     25
 Root     24 not converged, maximum delta is    0.385132168071390
 New state     25 was old state     24
 Root     25 not converged, maximum delta is    0.088595667638876
 New state     26 was old state     28
 Root     26 not converged, maximum delta is    0.350933542248949
 New state     27 was old state     26
 Root     27 not converged, maximum delta is    0.302200594405270
 New state     28 was old state     27
 Root     28 not converged, maximum delta is    0.068249669720473
 New state     29 was old state     30
 Root     29 not converged, maximum delta is    0.399378153774407
 New state     30 was old state     29
 Root     30 not converged, maximum delta is    0.135919957171678
 New state     31 was old state     34
 Root     31 not converged, maximum delta is    0.391585661206557
 New state     32 was old state     31
 Root     32 not converged, maximum delta is    0.197408473767782
 New state     33 was old state     32
 Root     33 not converged, maximum delta is    0.216488616623374
 New state     34 was old state     33
 Root     34 not converged, maximum delta is    0.168041056865825
 New state     35 was old state     37
 Root     35 not converged, maximum delta is    0.195329783680088
 New state     36 was old state     35
 Root     36 not converged, maximum delta is    0.416217028770040
 New state     37 was old state     36
 Root     37 not converged, maximum delta is    0.309215343556496
 New state     38 was old state     41
 Root     38 not converged, maximum delta is    0.165424518247326
 New state     39 was old state     38
 Root     39 not converged, maximum delta is    0.174529897511443
 New state     40 was old state     39
 Root     40 not converged, maximum delta is    0.176311792382363
 New state     41 was old state     40
 Root     41 not converged, maximum delta is    0.114545922787969
 Root     42 not converged, maximum delta is    0.045287448177200
 Root     43 not converged, maximum delta is    0.020921294974475
 Root     44 not converged, maximum delta is    0.126920145211756
 New state     45 was old state     51
 Root     45 not converged, maximum delta is    0.397522527481866
 New state     46 was old state     45
 Root     46 not converged, maximum delta is    0.082675034956567
 New state     47 was old state     46
 Root     47 not converged, maximum delta is    0.273866486204636
 New state     48 was old state     47
 Root     48 not converged, maximum delta is    0.527069971412277
 Root     49 not converged, maximum delta is    0.195246397092428
 New state     50 was old state     48
 Root     50 not converged, maximum delta is    0.237534003956393
 New state     51 was old state     50
 Root     51 not converged, maximum delta is    0.234497945623751
 Root     52 not converged, maximum delta is    0.110850679853063
 New state     53 was old state     55
 Root     53 not converged, maximum delta is    0.254996068170348
 New state     54 was old state     53
 Root     54 not converged, maximum delta is    0.346455738180166
 New state     55 was old state     54
 Root     55 not converged, maximum delta is    0.205431759566870
 New state     56 was old state     57
 Root     56 not converged, maximum delta is    0.387161495690884
 New state     57 was old state     56
 Root     57 not converged, maximum delta is    0.208324441926965
 New state     58 was old state     60
 Root     58 not converged, maximum delta is    0.279487288787494
 New state     59 was old state     58
 Root     59 not converged, maximum delta is    0.133145442707904
 New state     60 was old state     59
 Root     60 not converged, maximum delta is    0.351256563526253
 Root     61 not converged, maximum delta is    0.460633810959226
 New state     62 was old state     63
 Root     62 not converged, maximum delta is    0.388662529907996
 New state     63 was old state     62
 Root     63 not converged, maximum delta is    0.419508344051167
 New state     64 was old state     73
 Root     64 not converged, maximum delta is    0.287548285988967
 Root     65 not converged, maximum delta is    0.133695797808668
 New state     66 was old state     64
 Root     66 not converged, maximum delta is    0.065578095440168
 New state     67 was old state     66
 Root     67 not converged, maximum delta is    0.254488490289602
 New state     68 was old state     67
 Root     68 not converged, maximum delta is    0.385606687858433
 Root     69 not converged, maximum delta is    0.425555350341480
 Root     70 not converged, maximum delta is    0.563225828357646
 New state     71 was old state     76
 Root     71 not converged, maximum delta is    0.487161737117245
 New state     72 was old state     71
 Root     72 not converged, maximum delta is    0.326381115000620
 New state     73 was old state     72
 Root     73 not converged, maximum delta is    0.470182791220488
 New state     74 was old state     75
 Root     74 not converged, maximum delta is    0.584760970245611
 New state     75 was old state     79
 Root     75 not converged, maximum delta is    0.305988993189928
 New state     76 was old state     74
 Root     76 not converged, maximum delta is    0.278576296491682
 No map to state     77
 New state     78 was old state     77
 Root     78 not converged, maximum delta is    0.149549908798639
 New state     79 was old state     78
 Root     79 not converged, maximum delta is    0.263849304090573
 Root     80 not converged, maximum delta is    0.469398549105014
 Root     81 not converged, maximum delta is    0.607206152792119
 New state     82 was old state     87
 Root     82 not converged, maximum delta is    0.613028152943742
 New state     83 was old state     82
 Root     83 not converged, maximum delta is    0.166175413350612
 New state     84 was old state     83
 Root     84 not converged, maximum delta is    0.353432739240333
 Root     85 not converged, maximum delta is    0.164715809240914
 New state     86 was old state     84
 Root     86 not converged, maximum delta is    0.328311363840211
 New state     87 was old state     86
 Root     87 not converged, maximum delta is    0.115041336887322
 New state     88 was old state     89
 Root     88 not converged, maximum delta is    0.308253216249001
 New state     89 was old state     92
 Root     89 not converged, maximum delta is    0.418742983447529
 New state     90 was old state     88
 Root     90 not converged, maximum delta is    0.107007957231067
 Root     91 not converged, maximum delta is    0.355190933772138
 New state     92 was old state     90
 Root     92 not converged, maximum delta is    0.230094950037006
 New state     93 was old state     96
 Root     93 not converged, maximum delta is    0.576379893051036
 Root     94 not converged, maximum delta is    0.457985576048981
 Root     95 not converged, maximum delta is    0.283818059238066
 New state     96 was old state     93
 Root     96 not converged, maximum delta is    0.210358786033250
 New state     97 was old state     98
 Root     97 not converged, maximum delta is    0.468183996582002
 New state     98 was old state     99
 Root     98 not converged, maximum delta is    0.498628652776789
 New state     99 was old state    104
 Root     99 not converged, maximum delta is    0.537329339463837
 New state    100 was old state     97
 Root    100 not converged, maximum delta is    0.142202538311372
 Excitation Energies [eV] at current iteration:
 Root      1 :     1.931858036623928   Change is   -0.178235102124636
 Root      2 :     2.443793866385625   Change is   -0.025780488185209
 Root      3 :     2.530065348454064   Change is   -0.007723421228347
 Root      4 :     3.454508410210863   Change is   -0.002963800362154
 Root      5 :     3.534965645941169   Change is   -0.001013738392134
 Root      6 :     3.560558826606086   Change is   -0.019465436620028
 Root      7 :     3.840258168454457   Change is   -0.005835404430397
 Root      8 :     3.954255733170364   Change is   -0.048943387435656
 Root      9 :     4.194485467174586   Change is   -0.008083123918479
 Root     10 :     4.258283174995224   Change is   -0.170827642651962
 Root     11 :     4.475075153138536   Change is   -0.009409637948121
 Root     12 :     4.520445571848930   Change is   -0.007295492275804
 Root     13 :     4.611723505237936   Change is   -0.018770306168336
 Root     14 :     4.736008623265126   Change is   -0.012982821329173
 Root     15 :     4.784292741143794   Change is   -0.040921034525293
 Root     16 :     4.818751169561141   Change is   -0.004849142394897
 Root     17 :     4.885083188317038   Change is   -0.079512518614927
 Root     18 :     4.914951320160837   Change is    0.005482272277384
 Root     19 :     5.043091177711672   Change is   -0.012885197863912
 Root     20 :     5.120162218621759   Change is   -0.007799319822264
 Root     21 :     5.183435502187667   Change is   -0.021066664551446
 Root     22 :     5.213155118373681   Change is   -0.036989855350509
 Root     23 :     5.278910260999511   Change is   -0.006384331750053
 Root     24 :     5.345182552531132   Change is   -0.190066123470172
 Root     25 :     5.437803809420807   Change is   -0.005510791801527
 Root     26 :     5.495943396266654   Change is   -0.181780231080611
 Root     27 :     5.541690803068746   Change is    0.003472924646075
 Root     28 :     5.571348129208399   Change is   -0.015010644276546
 Root     29 :     5.810643342104093   Change is   -0.065487001651665
 Root     30 :     5.848914674631406   Change is   -0.002865842126787
 Root     31 :     5.890099324545386   Change is   -0.103553280222518
 Root     32 :     5.920733459330499   Change is   -0.002546925218416
 Root     33 :     5.926793669804836   Change is   -0.002234845820684
 Root     34 :     5.934651259833745   Change is   -0.008772857769375
 Root     35 :     6.029729070309895   Change is   -0.127596193446039
 Root     36 :     6.055846483773050   Change is   -0.025256029450434
 Root     37 :     6.071244191560183   Change is   -0.018808051134782
 Root     38 :     6.143119358935044   Change is   -0.102514773237234
 Root     39 :     6.177866118342708   Change is   -0.010609471152648
 Root     40 :     6.183977526697720   Change is   -0.018611079965012
 Root     41 :     6.224043623776491   Change is   -0.014395554657729
 Root     42 :     6.252572136391840   Change is   -0.003734143984278
 Root     43 :     6.374471488744247   Change is   -0.005027547627718
 Root     44 :     6.378670571501690   Change is   -0.021926286991830
 Root     45 :     6.446041741309663   Change is   -0.353417800619744
 Root     46 :     6.525870009427411   Change is   -0.019770517832544
 Root     47 :     6.578947053795724   Change is   -0.013811959705469
 Root     48 :     6.592478270292997   Change is   -0.073159796200791
 Root     49 :     6.665219042220794   Change is   -0.073991750846393
 Root     50 :     6.681141298643555   Change is   -0.023066963818220
 Root     51 :     6.752831030724851   Change is   -0.032036022898011
 Root     52 :     6.831270613375767   Change is   -0.023187344806828
[...]
                                                                                                                                                                                                                                                                                                                                                                                                                                                                                                                                                                                                                                                                                                                                                                                                                                                                                                                                                                                                                                                                                                                                                                                                                                                                                                                                                                                                                                                                                                                                                                                                                                                                                                                                                                                                                                                                                                                                                                                                                                                                                                                                                                                                                                                                                                                                                                                                                                                                                                                                                                                                                                                                                                                                                                                                                                                                                                                                                                                                                                                                                                                                                                                                                                                                                                                                                                                                                                                                                                                                                                                                                                                                                                                                                                                                                                                                                                                                                                                                                                                                                                                                                                                                                                                                                                                                                                                                                                                                                                                                                                                                                                                                                                                                                                                                                                                                                                                                                                                                                                                                                                                                                                                                                                                                                                                                                                                                                                                                                                                                                                                                                                                                                                                                                                                                                                                                                                                                                                                                                                                                                                                                                                                                                                                                                                                                                                                                                                                                                                                                                                                                                                                                                                                                                                                                                                                                                                                                                                                                                                                                                                                                                                                                                                                                                                                                                                                                                                                                                                                                                                                                                                                                                                                                                                                                                                                                                                                                                                                                                                                                                                                                                                                                                                                                                                                                                                                                                                                                                                                                                                                                                                                                                                                                                                                                                                                                                                                                                                                                                                                                                                                                                                                                                                                                                                                                                                                                                                                                                                                                                                                                                                                                                                                                                                                                                                                                                                                                                                                                                                                                                                                                                                                                                                                                                                                                                                                                                                                                                                                                                                                                                                                                                                                                                                                                                                                                                                                                                                                                                                                                                                                                                                                                                                                                                                                                                                                                                                                                                                                                                                                                                                                                                                                                                                                                                                                                                                                                                                                                                                                                                                                                                                                                                                                                                                                                                                                                                                                                                                                                                                                                                                                                                                                                                                                                                                                                                                                                                                                                                                                                                                                                                                                                                                                                                                                                                                                                                                                                                                                                                                                                                                                                                                                                                                                                                                                                                                                                                                                                                                                                                                                                                                                                                                                                                                                                                                                                                                                                                                                                                                                                                                                                                                                                                                                                                                                                                                                                                                                                                                                                                                                                                                                                                                                                                                                                                                                                                                                                                                                                                                                                                                                                                                                                                                                                                                                                                                                                                                                                                                                                                                                                                                                                                                                                                                                                                                                                                                                                                                                                                                                                                                                                                                                                                                                                                                                                                                                                                                                                                                                                                                                                                                                                                                                                                                                                                                                                                                                                                                                                                                                                                                                                                                                                                                                                                                                                                                                                                                                                                                                                                                                                                                                                                                                                                                                                                                                                                                                                                                                                                                                                                                                                                                                                                                                                                                                                                                                                                                                                                                                                                                                                                                                                                                                                                                                                                                                                                                                                                                                                                                                                                                                                                                                                                                                                                                                                                                                                                                                                                                                                                                                                                                                                                                                                                                                                                                                                                                                                                                                                                                                                                                                                                                                                                                                                                                