 Entering Gaussian System, Link 0=gdv
 Input=MH29.com
 Output=MH29.log
 Initial command:
 /panfs/pfs.local/work/caricato/m330c584/PANFS-WORK-MCARICATO/gdv_i09/gdv/l1.exe "/tmp/abiancar/Gau-150829.inp" -scrdir="/tmp/abiancar/"
 Entering Link 1 = /panfs/pfs.local/work/caricato/m330c584/PANFS-WORK-MCARICATO/gdv_i09/gdv/l1.exe PID=    150830.
  
 Copyright (c) 1988,1990,1992,1993,1995,1998,2003,2009,2016,
            Gaussian, Inc.  All Rights Reserved.
  
 This is the private, development version of
 the Gaussian(R) DV system of programs. It is based on
 the Gaussian(R) 09 system (copyright 2009, Gaussian, Inc.),
 the Gaussian(R) 03 system (copyright 2003, Gaussian, Inc.),
 the Gaussian(R) 98 system (copyright 1998, Gaussian, Inc.),
 the Gaussian(R) 94 system (copyright 1995, Gaussian, Inc.),
 the Gaussian 92(TM) system (copyright 1992, Gaussian, Inc.),
 the Gaussian 90(TM) system (copyright 1990, Gaussian, Inc.),
 the Gaussian 88(TM) system (copyright 1988, Gaussian, Inc.),
 the Gaussian 86(TM) system (copyright 1986, Carnegie Mellon
 University), and the Gaussian 82(TM) system (copyright 1983,
 Carnegie Mellon University). Gaussian is a federally registered
 trademark of Gaussian, Inc.
  
 This software contains proprietary and confidential information,
 including trade secrets, belonging to Gaussian, Inc.
  
 This software is provided under written license and may be
 used, copied, transmitted, or stored only in accord with that
 written license.
  
 The following legend is applicable only to US Government
 contracts under FAR:
  
                    RESTRICTED RIGHTS LEGEND
  
 Use, reproduction and disclosure by the US Government is
 subject to restrictions as set forth in subparagraphs (a)
 and (c) of the Commercial Computer Software - Restricted
 Rights clause in FAR 52.227-19.
  
 Gaussian, Inc.
 340 Quinnipiac St., Bldg. 40, Wallingford CT 06492
  
  
 ---------------------------------------------------------------
 Warning -- This program may not be used in any manner that
 competes with the business of Gaussian, Inc. or will provide
 assistance to any competitor of Gaussian, Inc.  The licensee
 of this program is prohibited from giving any competitor of
 Gaussian, Inc. access to this program.  By using this program,
 the user acknowledges that Gaussian, Inc. is engaged in the
 business of creating and licensing software in the field of
 computational chemistry and represents and warrants to the
 licensee that it is not a competitor of Gaussian, Inc. and that
 it will not use this program in any manner prohibited above.
 ---------------------------------------------------------------
  

 Cite this work as:
 Gaussian Development Version, Revision I.09,
 M. J. Frisch, G. W. Trucks, H. B. Schlegel, G. E. Scuseria, 
 M. A. Robb, J. R. Cheeseman, G. Scalmani, V. Barone, 
 G. A. Petersson, H. Nakatsuji, X. Li, M. Caricato, A. Marenich, 
 J. Bloino, B. G. Janesko, R. Gomperts, B. Mennucci, H. P. Hratchian, 
 J. V. Ortiz, A. F. Izmaylov, J. L. Sonnenberg, D. Williams-Young, 
 F. Ding, F. Lipparini, F. Egidi, J. Goings, B. Peng, A. Petrone, 
 T. Henderson, D. Ranasinghe, V. G. Zakrzewski, J. Gao, N. Rega, 
 G. Zheng, W. Liang, M. Hada, M. Ehara, K. Toyota, R. Fukuda, 
 J. Hasegawa, M. Ishida, T. Nakajima, Y. Honda, O. Kitao, H. Nakai, 
 T. Vreven, K. Throssell, J. A. Montgomery, Jr., J. E. Peralta, 
 F. Ogliaro, M. Bearpark, J. J. Heyd, E. Brothers, K. N. Kudin, 
 V. N. Staroverov, T. Keith, R. Kobayashi, J. Normand, 
 K. Raghavachari, A. Rendell, J. C. Burant, S. S. Iyengar, J. Tomasi, 
 M. Cossi, J. M. Millam, M. Klene, C. Adamo, R. Cammi, 
 J. W. Ochterski, R. L. Martin, K. Morokuma, O. Farkas, 
 J. B. Foresman, and D. J. Fox, Gaussian, Inc., Wallingford CT, 2016.
 
 ******************************************
 Gaussian DV:  ES64L-GDVRevI.09  1-Aug-2016
                25-Nov-2018 
 ******************************************
  %chk= MH29.chk
  %mem=20Gb
  %nprocshared=20
 Will use up to   20 processors via shared memory.
 -------------------------------------------------------------
 #p Td(nstates=100) CAM-B3LYP/6-311++G(d,p) nosym geom=nocrowd
 -------------------------------------------------------------
 1/38=1,172=1/1;
 2/12=1,15=1,17=6,18=5,40=1/2;
 3/5=4,6=6,7=1111,11=9,25=1,30=1,74=-40/1,2,3,8;
 4//1;
 5/5=2,38=5/2;
 8/6=1,10=2,108=100/1;
 9/41=100,42=1,70=2/14;
 6/7=2,8=2,9=2,10=2/1;
 99/5=1,9=1/99;
 Leave Link    1 at Sun Nov 25 19:44:31 2018, MaxMem=  2684354560 cpu:               1.9 elap:               0.1
 (Enter /panfs/pfs.local/work/caricato/m330c584/PANFS-WORK-MCARICATO/gdv_i09/gdv/l101.exe)
 ----
 MH29
 ----
 Symbolic Z-matrix:
 Charge =  0 Multiplicity = 1
 C                    0     1.04452  -1.07406   0.57012 
 C                    0     2.41772  -1.11122   0.59154 
 C                    0     3.19985  -0.03498  -0.02435 
 C                    0     2.43181   1.09493  -0.55425 
 C                    0     1.05874   1.07042  -0.54383 
 C                    0     0.35791  -0.00114   0.00499 
 N                    0    -1.07796  -0.00611  -0.02375 
 C                    0    -1.77656   1.02031   0.55638 
 C                    0    -1.74847  -1.03887  -0.62394 
 O                    0     4.43878  -0.06894  -0.07721 
 C                    0    -3.15565   1.02041   0.52148 
 C                    0    -3.12867  -1.06662  -0.60465 
 H                    0     0.48358  -1.90342   0.98637 
 H                    0     0.50955   1.89147  -0.99073 
 H                    0    -3.62025  -1.8814   -1.11687 
 H                    0    -3.66928   1.82963   1.02079 
 C                    0    -3.87109  -0.03247  -0.04297 
 C-#1                 0     3.12281   2.28399  -1.09991 
 C-#1                 0     3.09757  -2.25573   1.23881 
 C-#1                 0    -5.34628  -0.04905  -0.04836 
 C-#1                 0    -1.00896  -2.09522  -1.35483 
 C-#1                 0    -1.06589   2.10837   1.27114 
 C-#6-0.018514        0     2.61017   3.56223  -0.85391 
 C-#6-0.032827        0     4.34239   4.57189  -2.18161 
 C-#6--0.029233       0     4.27851   2.17901  -1.87962 
 C-#6--0.314460       0     4.87376   3.31004  -2.4179 
 C-#6--0.341861       0     3.20791   4.69322  -1.39118 
 H-#6-0.087752        0     4.81606   5.45282  -2.59902 
 H-#6-0.148308        0     2.79406   5.67278  -1.1791 
 H-#6-0.094212        0     1.74546   3.67339  -0.20886 
 H-#6-0.126929        0     4.71164   1.20326  -2.0432 
 H-#6-0.153562        0     5.7667    3.20469  -3.02355 
 C-#6--0.057527       0     4.29369  -4.49993   2.43681 
 C-#6--0.015558       0     2.58256  -2.8114    2.41397 
 C-#6--0.074697       0     4.24449  -2.8372    0.68902 
 C-#6--0.284930       0     3.16749  -3.92187   3.00551 
 C-#6--0.217952       0     4.82779  -3.94832   1.27898 
 H-#6-0.128777        0     4.68016  -2.3979   -0.196 
 H-#6-0.132262        0     5.71404  -4.38421   0.83188 
 H-#6-0.106875        0     4.75838  -5.36363   2.89795 
 H-#6-0.146395        0     2.7503   -4.32681   3.92067 
 H-#6-0.062678        0     1.72194  -2.35128   2.88668 
 C-#6--0.372696       0    -6.04304  -1.24802   0.11216 
 C-#6-0.180859        0    -7.42886  -1.26315   0.11072 
 C-#6-0.179380        0    -7.45565   1.1158   -0.22161 
 C-#6--0.377284       0    -8.13883  -0.08185  -0.05782 
 C-#6--0.370032       0    -6.06988   1.13324  -0.21361 
 H-#6-0.163034        0    -5.54619   2.0696   -0.3642 
 H-#6-0.170619        0    -9.22181  -0.09456  -0.06148 
 H-#6-0.064963        0    -7.95611  -2.19926   0.24766 
 H-#6-0.065448        0    -8.00379   2.03927  -0.36227 
 H-#6-0.168440        0    -5.49836  -2.17178   0.26614 
 C-#6--0.462833       0    -0.09861  -1.77762  -2.36315 
 C-#6--0.371117       0    -1.27677  -3.43028  -1.0672 
 C-#6-0.236970        0    -0.62993  -4.44034  -1.76602 
 C-#6--0.474622       0     0.27524  -4.1204   -2.7657 
 C-#6-0.274567        0     0.53331  -2.78755  -3.06605 
 H-#6-0.129277        0    -1.97107  -3.68144  -0.27361 
 H-#6-0.054896        0    -0.82687  -5.4762   -1.51909 
 H-#6-0.188395        0     0.78783  -4.90668  -3.30601 
 H-#6-0.059297        0     1.24327  -2.53241  -3.8427 
 H-#6-0.154787        0     0.13288  -0.74322  -2.58001 
 C-#6--0.586365       0    -0.16543   1.83923   2.30211 
 C-#6--0.533780       0    -1.34372   3.42884   0.93045 
 C-#6-0.413599        0    -0.71648   4.47182   1.59925 
 C-#6-0.474943        0     0.44883   2.88135   2.97312 
 C-#6--0.656015       0     0.18101   4.19948   2.61971 
 H-#6-0.165903        0    -2.03001   3.64227   0.11911 
 H-#6-0.024361        0    -0.92317   5.49553   1.31238 
 H-#6-0.221884        0     0.68043   5.01054   3.13517 
 H-#6-0.026011        0     1.15446   2.66319   3.76473 
 H-#6-0.154755        0     0.0758    0.81624   2.55833 
 H                    0     2.93201   1.95568  -0.94924 
 H                    0     2.90985  -1.93971   1.06009 
 H                    0    -4.93896  -0.04447  -0.04687 
 H                    0    -1.21315  -1.80355  -1.15302 
 H                    0    -1.26212   1.80794   1.07378 
 
 ITRead=  0  0  0  0  0  0  0  0  0  0  0  0  0  0  0  0  0  0  0  0
 ITRead=  0  0  0  0  0  0  0  0  0  0  0  0  0  0  0  0  0  0  0  0
 ITRead=  0  0  0  0  0  0  0  0  0  0  0  0  0  0  0  0  0  0  0  0
 ITRead=  0  0  0  0  0  0  0  0  0  0  0  0  0  0  0  0  0
 MicOpt= -1 -1 -1 -1 -1 -1 -1 -1 -1 -1 -1 -1 -1 -1 -1 -1 -1 -1 -1 -1
 MicOpt= -1 -1 -1 -1 -1 -1 -1 -1 -1 -1 -1 -1 -1 -1 -1 -1 -1 -1 -1 -1
 MicOpt= -1 -1 -1 -1 -1 -1 -1 -1 -1 -1 -1 -1 -1 -1 -1 -1 -1 -1 -1 -1
 MicOpt= -1 -1 -1 -1 -1 -1 -1 -1 -1 -1 -1 -1 -1 -1 -1 -1 -1
 NAtoms=     77 NQM=       77 NQMF=       0 NMMI=      0 NMMIF=      0
                NMic=       0 NMicF=      0.
                    Isotopes and Nuclear Properties:
 (Nuclear quadrupole moments (NQMom) in fm**2, nuclear magnetic moments (NMagM)
  in nuclear magnetons)

  Atom         1           2           3           4           5           6           7           8           9          10
 IAtWgt=          12          12          12          12          12          12          14          12          12          16
 AtmWgt=  12.0000000  12.0000000  12.0000000  12.0000000  12.0000000  12.0000000  14.0030740  12.0000000  12.0000000  15.9949146
 NucSpn=           0           0           0           0           0           0           2           0           0           0
 AtZEff=   0.0000000   0.0000000   0.0000000   0.0000000   0.0000000   0.0000000   0.0000000   0.0000000   0.0000000   0.0000000
 NQMom=    0.0000000   0.0000000   0.0000000   0.0000000   0.0000000   0.0000000   2.0440000   0.0000000   0.0000000   0.0000000
 NMagM=    0.0000000   0.0000000   0.0000000   0.0000000   0.0000000   0.0000000   0.4037610   0.0000000   0.0000000   0.0000000
 AtZNuc=   6.0000000   6.0000000   6.0000000   6.0000000   6.0000000   6.0000000   7.0000000   6.0000000   6.0000000   8.0000000

  Atom        11          12          13          14          15          16          17          18          19          20
 IAtWgt=          12          12           1           1           1           1          12          12          12          12
 AtmWgt=  12.0000000  12.0000000   1.0078250   1.0078250   1.0078250   1.0078250  12.0000000  12.0000000  12.0000000  12.0000000
 NucSpn=           0           0           1           1           1           1           0           0           0           0
 AtZEff=   0.0000000   0.0000000   0.0000000   0.0000000   0.0000000   0.0000000   0.0000000   0.0000000   0.0000000   0.0000000
 NQMom=    0.0000000   0.0000000   0.0000000   0.0000000   0.0000000   0.0000000   0.0000000   0.0000000   0.0000000   0.0000000
 NMagM=    0.0000000   0.0000000   2.7928460   2.7928460   2.7928460   2.7928460   0.0000000   0.0000000   0.0000000   0.0000000
 AtZNuc=   6.0000000   6.0000000   1.0000000   1.0000000   1.0000000   1.0000000   6.0000000   6.0000000   6.0000000   6.0000000

  Atom        21          22          23          24          25          26          27          28          29          30
 IAtWgt=          12          12          12          12          12          12          12           1           1           1
 AtmWgt=  12.0000000  12.0000000  12.0000000  12.0000000  12.0000000  12.0000000  12.0000000   1.0078250   1.0078250   1.0078250
 NucSpn=           0           0           0           0           0           0           0           1           1           1
 AtZEff=   0.0000000   0.0000000   0.0000000   0.0000000   0.0000000   0.0000000   0.0000000   0.0000000   0.0000000   0.0000000
 NQMom=    0.0000000   0.0000000   0.0000000   0.0000000   0.0000000   0.0000000   0.0000000   0.0000000   0.0000000   0.0000000
 NMagM=    0.0000000   0.0000000   0.0000000   0.0000000   0.0000000   0.0000000   0.0000000   2.7928460   2.7928460   2.7928460
 AtZNuc=   6.0000000   6.0000000   6.0000000   6.0000000   6.0000000   6.0000000   6.0000000   1.0000000   1.0000000   1.0000000

  Atom        31          32          33          34          35          36          37          38          39          40
 IAtWgt=           1           1          12          12          12          12          12           1           1           1
 AtmWgt=   1.0078250   1.0078250  12.0000000  12.0000000  12.0000000  12.0000000  12.0000000   1.0078250   1.0078250   1.0078250
 NucSpn=           1           1           0           0           0           0           0           1           1           1
 AtZEff=   0.0000000   0.0000000   0.0000000   0.0000000   0.0000000   0.0000000   0.0000000   0.0000000   0.0000000   0.0000000
 NQMom=    0.0000000   0.0000000   0.0000000   0.0000000   0.0000000   0.0000000   0.0000000   0.0000000   0.0000000   0.0000000
 NMagM=    2.7928460   2.7928460   0.0000000   0.0000000   0.0000000   0.0000000   0.0000000   2.7928460   2.7928460   2.7928460
 AtZNuc=   1.0000000   1.0000000   6.0000000   6.0000000   6.0000000   6.0000000   6.0000000   1.0000000   1.0000000   1.0000000

  Atom        41          42          43          44          45          46          47          48          49          50
 IAtWgt=           1           1          12          12          12          12          12           1           1           1
 AtmWgt=   1.0078250   1.0078250  12.0000000  12.0000000  12.0000000  12.0000000  12.0000000   1.0078250   1.0078250   1.0078250
 NucSpn=           1           1           0           0           0           0           0           1           1           1
 AtZEff=   0.0000000   0.0000000   0.0000000   0.0000000   0.0000000   0.0000000   0.0000000   0.0000000   0.0000000   0.0000000
 NQMom=    0.0000000   0.0000000   0.0000000   0.0000000   0.0000000   0.0000000   0.0000000   0.0000000   0.0000000   0.0000000
 NMagM=    2.7928460   2.7928460   0.0000000   0.0000000   0.0000000   0.0000000   0.0000000   2.7928460   2.7928460   2.7928460
 AtZNuc=   1.0000000   1.0000000   6.0000000   6.0000000   6.0000000   6.0000000   6.0000000   1.0000000   1.0000000   1.0000000

  Atom        51          52          53          54          55          56          57          58          59          60
 IAtWgt=           1           1          12          12          12          12          12           1           1           1
 AtmWgt=   1.0078250   1.0078250  12.0000000  12.0000000  12.0000000  12.0000000  12.0000000   1.0078250   1.0078250   1.0078250
 NucSpn=           1           1           0           0           0           0           0           1           1           1
 AtZEff=   0.0000000   0.0000000   0.0000000   0.0000000   0.0000000   0.0000000   0.0000000   0.0000000   0.0000000   0.0000000
 NQMom=    0.0000000   0.0000000   0.0000000   0.0000000   0.0000000   0.0000000   0.0000000   0.0000000   0.0000000   0.0000000
 NMagM=    2.7928460   2.7928460   0.0000000   0.0000000   0.0000000   0.0000000   0.0000000   2.7928460   2.7928460   2.7928460
 AtZNuc=   1.0000000   1.0000000   6.0000000   6.0000000   6.0000000   6.0000000   6.0000000   1.0000000   1.0000000   1.0000000

  Atom        61          62          63          64          65          66          67          68          69          70
 IAtWgt=           1           1          12          12          12          12          12           1           1           1
 AtmWgt=   1.0078250   1.0078250  12.0000000  12.0000000  12.0000000  12.0000000  12.0000000   1.0078250   1.0078250   1.0078250
 NucSpn=           1           1           0           0           0           0           0           1           1           1
 AtZEff=   0.0000000   0.0000000   0.0000000   0.0000000   0.0000000   0.0000000   0.0000000   0.0000000   0.0000000   0.0000000
 NQMom=    0.0000000   0.0000000   0.0000000   0.0000000   0.0000000   0.0000000   0.0000000   0.0000000   0.0000000   0.0000000
 NMagM=    2.7928460   2.7928460   0.0000000   0.0000000   0.0000000   0.0000000   0.0000000   2.7928460   2.7928460   2.7928460
 AtZNuc=   1.0000000   1.0000000   6.0000000   6.0000000   6.0000000   6.0000000   6.0000000   1.0000000   1.0000000   1.0000000

  Atom        71          72          73          74          75          76          77
 IAtWgt=           1           1           1           1           1           1           1
 AtmWgt=   1.0078250   1.0078250   1.0078250   1.0078250   1.0078250   1.0078250   1.0078250
 NucSpn=           1           1           1           1           1           1           1
 AtZEff=   0.0000000   0.0000000   0.0000000   0.0000000   0.0000000   0.0000000   0.0000000
 NQMom=    0.0000000   0.0000000   0.0000000   0.0000000   0.0000000   0.0000000   0.0000000
 NMagM=    2.7928460   2.7928460   2.7928460   2.7928460   2.7928460   2.7928460   2.7928460
 AtZNuc=   1.0000000   1.0000000   1.0000000   1.0000000   1.0000000   1.0000000   1.0000000
 MM Charge=             -0.7295 electrons
 MM Dipole moment (Debye):
    X=              4.6012    Y=             -0.3382    Z=             -1.0958  Tot=              4.7419
 MM Quadrupole moment (Debye-Ang):
   XX=             10.0726   YY=             19.3517   ZZ=             10.9590
   XY=             -0.9792   XZ=             -6.5478   YZ=              2.1371
 MM Traceless Quadrupole moment (Debye-Ang):
   XX=             -3.3885   YY=              5.8906   ZZ=             -2.5021
   XY=             -0.9792   XZ=             -6.5478   YZ=              2.1371
 MM Octapole moment (Debye-Ang**2):
  XXX=            -87.5137  YYY=             19.7977  ZZZ=              8.8966  XYY=            -25.3761
  XXY=            -24.4891  XXZ=            -47.3657  XZZ=             47.9671  YZZ=             -7.5387
  YYZ=              4.3453  XYZ=             43.8598
 MM Hexadecapole moment (Debye-Ang**3):
 XXXX=           3254.0739 YYYY=           1625.4952 ZZZZ=            382.9276 XXXY=           -107.3225
 XXXZ=           -243.6989 YYYX=            -20.8246 YYYZ=            133.5341 ZZZX=            -29.3669
 ZZZY=             59.9912 XXYY=            621.6616 XXZZ=            149.4243 YYZZ=            321.9465
 XXYZ=            -94.2069 YYXZ=             -3.5414 ZZXY=             12.3595
 Leave Link  101 at Sun Nov 25 19:44:31 2018, MaxMem=  2684354560 cpu:               4.2 elap:               0.3
 (Enter /panfs/pfs.local/work/caricato/m330c584/PANFS-WORK-MCARICATO/gdv_i09/gdv/l202.exe)
 Symmetry turned off by external request.
 Stoichiometry    C41H34NO
 Framework group  C1[X(C41H34NO)]
 Deg. of freedom   225
 Full point group                 C1      NOp   1
                          Input orientation:                          
 ---------------------------------------------------------------------
 Center     Atomic      Atomic             Coordinates (Angstroms)
 Number     Number       Type             X           Y           Z
 ---------------------------------------------------------------------
      1          6           0        1.044523   -1.074059    0.570119
      2          6           0        2.417721   -1.111219    0.591537
      3          6           0        3.199849   -0.034980   -0.024347
      4          6           0        2.431809    1.094935   -0.554247
      5          6           0        1.058738    1.070420   -0.543826
      6          6           0        0.357909   -0.001139    0.004987
      7          7           0       -1.077959   -0.006115   -0.023751
      8          6           0       -1.776555    1.020310    0.556382
      9          6           0       -1.748475   -1.038869   -0.623940
     10          8           0        4.438780   -0.068943   -0.077215
     11          6           0       -3.155648    1.020414    0.521477
     12          6           0       -3.128675   -1.066624   -0.604653
     13          1           0        0.483580   -1.903420    0.986365
     14          1           0        0.509554    1.891467   -0.990730
     15          1           0       -3.620252   -1.881401   -1.116872
     16          1           0       -3.669280    1.829626    1.020788
     17          6           0       -3.871093   -0.032465   -0.042969
     18          6           1        3.122807    2.283991   -1.099910
     19          6           1        3.097570   -2.255725    1.238809
     20          6           1       -5.346278   -0.049054   -0.048360
     21          6           1       -1.008956   -2.095223   -1.354825
     22          6           1       -1.065895    2.108372    1.271139
     23          6           6        2.610167    3.562233   -0.853906
     24          6           6        4.342392    4.571887   -2.181607
     25          6           6        4.278511    2.179010   -1.879620
     26          6           6        4.873757    3.310037   -2.417903
     27          6           6        3.207911    4.693222   -1.391178
     28          1           6        4.816061    5.452818   -2.599018
     29          1           6        2.794060    5.672782   -1.179104
     30          1           6        1.745455    3.673394   -0.208857
     31          1           6        4.711637    1.203262   -2.043196
     32          1           6        5.766703    3.204695   -3.023551
     33          6           6        4.293686   -4.499925    2.436812
     34          6           6        2.582564   -2.811404    2.413966
     35          6           6        4.244494   -2.837203    0.689021
     36          6           6        3.167487   -3.921869    3.005505
     37          6           6        4.827792   -3.948323    1.278980
     38          1           6        4.680163   -2.397904   -0.195999
     39          1           6        5.714039   -4.384214    0.831877
     40          1           6        4.758382   -5.363629    2.897947
     41          1           6        2.750296   -4.326813    3.920665
     42          1           6        1.721942   -2.351281    2.886681
     43          6           6       -6.043041   -1.248021    0.112161
     44          6           6       -7.428855   -1.263150    0.110716
     45          6           6       -7.455655    1.115802   -0.221614
     46          6           6       -8.138825   -0.081853   -0.057816
     47          6           6       -6.069877    1.133238   -0.213610
     48          1           6       -5.546185    2.069596   -0.364205
     49          1           6       -9.221813   -0.094563   -0.061479
     50          1           6       -7.956109   -2.199256    0.247661
     51          1           6       -8.003794    2.039271   -0.362265
     52          1           6       -5.498365   -2.171781    0.266141
     53          6           6       -0.098609   -1.777620   -2.363148
     54          6           6       -1.276769   -3.430280   -1.067199
     55          6           6       -0.629928   -4.440342   -1.766020
     56          6           6        0.275235   -4.120396   -2.765696
     57          6           6        0.533315   -2.787548   -3.066052
     58          1           6       -1.971075   -3.681440   -0.273613
     59          1           6       -0.826874   -5.476201   -1.519095
     60          1           6        0.787831   -4.906679   -3.306009
     61          1           6        1.243268   -2.532414   -3.842699
     62          1           6        0.132879   -0.743225   -2.580014
     63          6           6       -0.165428    1.839233    2.302109
     64          6           6       -1.343719    3.428845    0.930451
     65          6           6       -0.716481    4.471825    1.599249
     66          6           6        0.448827    2.881353    2.973124
     67          6           6        0.181008    4.199480    2.619713
     68          1           6       -2.030013    3.642274    0.119107
     69          1           6       -0.923167    5.495526    1.312376
     70          1           6        0.680425    5.010540    3.135167
     71          1           6        1.154458    2.663194    3.764725
     72          1           6        0.075804    0.816238    2.558326
     73          1           0        2.932012    1.955675   -0.949244
     74          1           0        2.909853   -1.939710    1.060087
     75          1           0       -4.938958   -0.044473   -0.046871
     76          1           0       -1.213147   -1.803548   -1.153017
     77          1           0       -1.262118    1.807941    1.073783
 ---------------------------------------------------------------------
 Rotational constants (GHZ):           0.0969961           0.0594215           0.0457238
 Leave Link  202 at Sun Nov 25 19:44:31 2018, MaxMem=  2684354560 cpu:               4.0 elap:               0.3
 (Enter /panfs/pfs.local/work/caricato/m330c584/PANFS-WORK-MCARICATO/gdv_i09/gdv/l301.exe)
 Standard basis: 6-311++G(d,p) (5D, 7F)
 Ernie: Thresh=  0.10000D-02 Tol=  0.10000D-05 Strict=F.
   349 basis functions,   549 primitive gaussians,   362 cartesian basis functions
    45 alpha electrons       45 beta electrons
       nuclear repulsion energy       691.1509252813 Hartrees.
 Nuclear repulsion from inactive atom pairs=       -0.7735377452 Hartrees.
 IExCor=20419 DFT=T Ex+Corr=CAM-B3LYP ExCW=0 ScaHFX=  1.000000
 ScaDFX=  1.000000  1.000000  1.000000  0.810000 ScalE2=  1.000000  1.000000
 IRadAn=      5 IRanWt=     -1 IRanGd=            0 ICorTp=0 IEmpDi=  4
 HFx  wShort=  0.000000 wLong=  0.330000 cFull=  0.190000 cShort=  0.000000 cLong=  0.460000
 DFx  wShort=  0.000000 wLong=  0.330000 cFull=  0.190000 cShort=  0.000000 cLong=  0.460000
 NAtoms=   77 NActive=   22 NUniq=   22 SFac= 1.00D+00 NAtFMM=   60 NAOKFM=F Big=F
 Integral buffers will be    131072 words long.
 Raffenetti 1 integral format.
 Two-electron integral symmetry is turned off.
 Leave Link  301 at Sun Nov 25 19:44:32 2018, MaxMem=  2684354560 cpu:               3.1 elap:               0.2
 (Enter /panfs/pfs.local/work/caricato/m330c584/PANFS-WORK-MCARICATO/gdv_i09/gdv/l302.exe)
 NPDir=0 NMtPBC=     1 NCelOv=     1 NCel=       1 NClECP=     1 NCelD=      1
         NCelK=      1 NCelE2=     1 NClLst=     1 CellRange=     0.0.
 One-electron integrals computed using PRISM.
 NBasis=   349 RedAO= T EigKep=  1.07D-06  NBF=   349
 NBsUse=   349 1.00D-06 EigRej= -1.00D+00 NBFU=   349
 Precomputing XC quadrature grid using
 IXCGrd= 4 IRadAn=           5 IRanWt=          -1 IRanGd=           0 AccXCQ= 0.00D+00.
 Generated NRdTot=       0 NPtTot=           0 NUsed=           0 NTot=          32
 NSgBfM=   362   362   362   362   362 MxSgAt=    22 MxSgA2=    22.
 Leave Link  302 at Sun Nov 25 19:44:35 2018, MaxMem=  2684354560 cpu:              55.0 elap:               3.5
 (Enter /panfs/pfs.local/work/caricato/m330c584/PANFS-WORK-MCARICATO/gdv_i09/gdv/l303.exe)
 DipDrv:  MaxL=1.
 Leave Link  303 at Sun Nov 25 19:44:36 2018, MaxMem=  2684354560 cpu:               9.6 elap:               0.7
 (Enter /panfs/pfs.local/work/caricato/m330c584/PANFS-WORK-MCARICATO/gdv_i09/gdv/l308.exe)
 Leave Link  308 at Sun Nov 25 19:44:37 2018, MaxMem=  2684354560 cpu:               9.7 elap:               0.7
 (Enter /panfs/pfs.local/work/caricato/m330c584/PANFS-WORK-MCARICATO/gdv_i09/gdv/l401.exe)
 ExpMin= 3.60D-02 ExpMax= 8.59D+03 ExpMxC= 1.30D+03 IAcc=3 IRadAn=         5 AccDes= 0.00D+00
 Harris functional with IExCor=20419 and IRadAn=       5 diagonalized for initial guess.
 HarFok:  IExCor=20419 AccDes= 0.00D+00 IRadAn=         5 IDoV= 1 UseB2=F ITyADJ=14
 ICtDFT=  3500011 ScaDFX=  1.000000  1.000000  1.000000  1.000000
 FoFCou: FMM=F IPFlag=           0 FMFlag=      100000 FMFlg1=           0
         NFxFlg=           0 DoJE=T BraDBF=F KetDBF=T FulRan=T
         wScrn=  0.000000 ICntrl=       500 IOpCl=  0 I1Cent=   200000004 NGrid=           0
         NMat0=    1 NMatS0=      1 NMatT0=    0 NMatD0=    1 NMtDS0=    0 NMtDT0=    0
 Symmetry not used in FoFCou.
 Harris En= -533.757849508859    
 JPrj=0 DoOrth=F DoCkMO=F.
 Leave Link  401 at Sun Nov 25 19:44:41 2018, MaxMem=  2684354560 cpu:              59.3 elap:               3.8
 (Enter /panfs/pfs.local/work/caricato/m330c584/PANFS-WORK-MCARICATO/gdv_i09/gdv/l502.exe)
 Two-electron integral symmetry not used.
 Closed shell SCF:
 Using DIIS extrapolation, IDIIS=  1040.
 NGot=  2684354560 LenX=  2684080863 LenY=  2683949378
 Requested convergence on RMS density matrix=1.00D-08 within 128 cycles.
 Requested convergence on MAX density matrix=1.00D-06.
 Requested convergence on             energy=1.00D-06.
 No special actions if energy rises.
 Fock matrices will be formed incrementally for  20 cycles.

 Cycle   1  Pass 1  IDiag  1:
 FoFJK:  IHMeth= 1 ICntrl=       0 DoSepK=T KAlg= 0 I1Cent=           0 FoldK=F
 IRaf=         1 NMat=       1 IRICut=       1 DoRegI=T DoRafI=F ISym2E= 0 IDoP0=0 IntGTp=1.
 FoFCou: FMM=F IPFlag=           0 FMFlag=      100000 FMFlg1=           0
         NFxFlg=           0 DoJE=T BraDBF=F KetDBF=F FulRan=T
         wScrn=  0.000000 ICntrl=       500 IOpCl=  0 I1Cent=           0 NGrid=           0
         NMat0=    1 NMatS0=      1 NMatT0=    0 NMatD0=    1 NMtDS0=    0 NMtDT0=    0
 Symmetry not used in FoFCou.
 E= -554.921288827421    
 DIIS: error= 6.79D-02 at cycle   1 NSaved=   1.
 NSaved= 1 IEnMin= 1 EnMin= -554.921288827421     IErMin= 1 ErrMin= 6.79D-02
 ErrMax= 6.79D-02  0.00D+00 EMaxC= 1.00D-01 BMatC= 1.03D+00 BMatP= 1.03D+00
 IDIUse=3 WtCom= 3.21D-01 WtEn= 6.79D-01
 Coeff-Com:  0.100D+01
 Coeff-En:   0.100D+01
 Coeff:      0.100D+01
 Gap=     0.286 Goal=   None    Shift=    0.000
 GapD=    0.286 DampG=1.000 DampE=0.500 DampFc=0.5000 IDamp=-1.
 Damping current iteration by 5.00D-01
 RMSDP=8.01D-02 MaxDP=7.40D+00              OVMax= 6.93D-01

 Cycle   2  Pass 1  IDiag  1:
 RMSU=  3.64D-02    CP:  1.28D+00
 E= -554.597986778973     Delta-E=        0.323302048448 Rises=F Damp=T
 DIIS: error= 4.12D-02 at cycle   2 NSaved=   2.
 NSaved= 2 IEnMin= 1 EnMin= -554.921288827421     IErMin= 2 ErrMin= 4.12D-02
 ErrMax= 4.12D-02  0.00D+00 EMaxC= 1.00D-01 BMatC= 3.96D-01 BMatP= 1.03D+00
 IDIUse=3 WtCom= 5.88D-01 WtEn= 4.12D-01
 Coeff-Com:  0.125D+00 0.875D+00
 Coeff-En:   0.757D+00 0.243D+00
 Coeff:      0.385D+00 0.615D+00
 Gap=    -0.182 Goal=   None    Shift=    0.000
 RMSDP=3.52D-02 MaxDP=2.25D+00 DE= 3.23D-01 OVMax= 7.35D-01

 Cycle   3  Pass 1  IDiag  1:
 RMSU=  1.46D-02    CP:  8.99D-01  3.81D-01
 E= -554.954534796444     Delta-E=       -0.356548017471 Rises=F Damp=F
 DIIS: error= 4.13D-02 at cycle   3 NSaved=   3.
 NSaved= 3 IEnMin= 3 EnMin= -554.954534796444     IErMin= 2 ErrMin= 4.12D-02
 ErrMax= 4.13D-02  0.00D+00 EMaxC= 1.00D-01 BMatC= 2.73D-01 BMatP= 3.96D-01
 IDIUse=3 WtCom= 5.87D-01 WtEn= 4.13D-01
 EnCoef did     3 forward-backward iterations
 Coeff-Com: -0.103D+00 0.514D+00 0.589D+00
 Coeff-En:   0.164D+00 0.240D+00 0.597D+00
 Coeff:      0.712D-02 0.401D+00 0.592D+00
 Gap=     0.192 Goal=   None    Shift=    0.000
 RMSDP=1.80D-02 MaxDP=1.05D+00 DE=-3.57D-01 OVMax= 2.29D-01

 Cycle   4  Pass 1  IDiag  1:
 RMSU=  1.02D-02    CP:  9.74D-01  2.72D-01  7.41D-02
 E= -555.175947923736     Delta-E=       -0.221413127291 Rises=F Damp=F
 DIIS: error= 1.21D-02 at cycle   4 NSaved=   4.
 NSaved= 4 IEnMin= 4 EnMin= -555.175947923736     IErMin= 4 ErrMin= 1.21D-02
 ErrMax= 1.21D-02  0.00D+00 EMaxC= 1.00D-01 BMatC= 3.63D-02 BMatP= 2.73D-01
 IDIUse=3 WtCom= 8.79D-01 WtEn= 1.21D-01
 Coeff-Com: -0.930D-01 0.219D+00 0.285D+00 0.588D+00
 Coeff-En:   0.000D+00 0.000D+00 0.000D+00 0.100D+01
 Coeff:     -0.817D-01 0.193D+00 0.251D+00 0.638D+00
 Gap=     0.195 Goal=   None    Shift=    0.000
 RMSDP=7.68D-03 MaxDP=5.95D-01 DE=-2.21D-01 OVMax= 4.81D-02

 Cycle   5  Pass 1  IDiag  1:
 RMSU=  4.85D-03    CP:  8.90D-01  3.16D-01  2.15D-01  8.00D-01
 E= -555.197255277063     Delta-E=       -0.021307353328 Rises=F Damp=F
 DIIS: error= 9.59D-03 at cycle   5 NSaved=   5.
 NSaved= 5 IEnMin= 5 EnMin= -555.197255277063     IErMin= 5 ErrMin= 9.59D-03
 ErrMax= 9.59D-03  0.00D+00 EMaxC= 1.00D-01 BMatC= 9.62D-03 BMatP= 3.63D-02
 IDIUse=3 WtCom= 9.04D-01 WtEn= 9.59D-02
 Coeff-Com: -0.377D-01 0.788D-01 0.170D-02 0.287D+00 0.670D+00
 Coeff-En:   0.000D+00 0.000D+00 0.000D+00 0.143D+00 0.857D+00
 Coeff:     -0.341D-01 0.713D-01 0.154D-02 0.273D+00 0.688D+00
 Gap=     0.156 Goal=   None    Shift=    0.000
 RMSDP=5.03D-03 MaxDP=3.71D-01 DE=-2.13D-02 OVMax= 4.67D-02

 Cycle   6  Pass 1  IDiag  1:
 RMSU=  2.11D-03    CP:  9.16D-01  3.33D-01  1.46D-02  1.10D+00  1.07D+00
 E= -555.205944401624     Delta-E=       -0.008689124561 Rises=F Damp=F
 DIIS: error= 1.97D-03 at cycle   6 NSaved=   6.
 NSaved= 6 IEnMin= 6 EnMin= -555.205944401624     IErMin= 6 ErrMin= 1.97D-03
 ErrMax= 1.97D-03  0.00D+00 EMaxC= 1.00D-01 BMatC= 3.94D-04 BMatP= 9.62D-03
 IDIUse=3 WtCom= 9.80D-01 WtEn= 1.97D-02
 Coeff-Com: -0.419D-02 0.588D-02-0.476D-01 0.142D-01 0.288D+00 0.743D+00
 Coeff-En:   0.000D+00 0.000D+00 0.000D+00 0.000D+00 0.000D+00 0.100D+01
 Coeff:     -0.411D-02 0.577D-02-0.467D-01 0.140D-01 0.283D+00 0.748D+00
 Gap=     0.155 Goal=   None    Shift=    0.000
 RMSDP=1.30D-03 MaxDP=9.15D-02 DE=-8.69D-03 OVMax= 2.51D-02

 Cycle   7  Pass 1  IDiag  1:
 RMSU=  5.28D-04    CP:  9.10D-01  3.35D-01 -3.38D-02  1.13D+00  1.23D+00
                    CP:  1.07D+00
 E= -555.206625943173     Delta-E=       -0.000681541549 Rises=F Damp=F
 DIIS: error= 5.44D-04 at cycle   7 NSaved=   7.
 NSaved= 7 IEnMin= 7 EnMin= -555.206625943173     IErMin= 7 ErrMin= 5.44D-04
 ErrMax= 5.44D-04  0.00D+00 EMaxC= 1.00D-01 BMatC= 6.40D-05 BMatP= 3.94D-04
 IDIUse=3 WtCom= 9.95D-01 WtEn= 5.44D-03
 Coeff-Com:  0.112D-02-0.264D-02-0.773D-03-0.272D-01-0.596D-02 0.236D+00
 Coeff-Com:  0.800D+00
 Coeff-En:   0.000D+00 0.000D+00 0.000D+00 0.000D+00 0.000D+00 0.000D+00
 Coeff-En:   0.100D+01
 Coeff:      0.112D-02-0.262D-02-0.768D-03-0.270D-01-0.593D-02 0.234D+00
 Coeff:      0.801D+00
 Gap=     0.158 Goal=   None    Shift=    0.000
 RMSDP=5.50D-04 MaxDP=3.47D-02 DE=-6.82D-04 OVMax= 6.07D-03

 Cycle   8  Pass 1  IDiag  1:
 RMSU=  2.49D-04    CP:  9.07D-01  3.34D-01 -1.11D-02  1.11D+00  1.26D+00
                    CP:  1.09D+00  1.10D+00
 E= -555.206727835786     Delta-E=       -0.000101892613 Rises=F Damp=F
 DIIS: error= 3.33D-04 at cycle   8 NSaved=   8.
 NSaved= 8 IEnMin= 8 EnMin= -555.206727835786     IErMin= 8 ErrMin= 3.33D-04
 ErrMax= 3.33D-04  0.00D+00 EMaxC= 1.00D-01 BMatC= 1.39D-05 BMatP= 6.40D-05
 IDIUse=3 WtCom= 9.97D-01 WtEn= 3.33D-03
 Coeff-Com:  0.588D-03-0.780D-03 0.644D-02-0.515D-02-0.144D-01 0.253D-01
 Coeff-Com:  0.254D+00 0.734D+00
 Coeff-En:   0.000D+00 0.000D+00 0.000D+00 0.000D+00 0.000D+00 0.000D+00
 Coeff-En:   0.000D+00 0.100D+01
 Coeff:      0.586D-03-0.778D-03 0.642D-02-0.514D-02-0.143D-01 0.253D-01
 Coeff:      0.253D+00 0.735D+00
 Gap=     0.159 Goal=   None    Shift=    0.000
 RMSDP=3.44D-04 MaxDP=2.21D-02 DE=-1.02D-04 OVMax= 2.89D-03

 Cycle   9  Pass 1  IDiag  1:
 RMSU=  1.11D-04    CP:  9.04D-01  3.33D-01  3.03D-03  1.09D+00  1.26D+00
                    CP:  1.08D+00  1.20D+00  1.18D+00
 E= -555.206747659481     Delta-E=       -0.000019823695 Rises=F Damp=F
 DIIS: error= 2.19D-04 at cycle   9 NSaved=   9.
 NSaved= 9 IEnMin= 9 EnMin= -555.206747659481     IErMin= 9 ErrMin= 2.19D-04
 ErrMax= 2.19D-04  0.00D+00 EMaxC= 1.00D-01 BMatC= 3.06D-06 BMatP= 1.39D-05
 IDIUse=3 WtCom= 9.98D-01 WtEn= 2.19D-03
 Coeff-Com:  0.586D-03-0.102D-02 0.137D-02 0.624D-02 0.290D-02-0.497D-01
 Coeff-Com: -0.204D+00 0.223D+00 0.102D+01
 Coeff-En:   0.000D+00 0.000D+00 0.000D+00 0.000D+00 0.000D+00 0.000D+00
 Coeff-En:   0.000D+00 0.000D+00 0.100D+01
 Coeff:      0.585D-03-0.101D-02 0.136D-02 0.622D-02 0.289D-02-0.496D-01
 Coeff:     -0.204D+00 0.223D+00 0.102D+01
 Gap=     0.159 Goal=   None    Shift=    0.000
 RMSDP=2.80D-04 MaxDP=1.71D-02 DE=-1.98D-05 OVMax= 3.38D-03

 Cycle  10  Pass 1  IDiag  1:
 RMSU=  3.14D-05    CP:  9.02D-01  3.32D-01  1.37D-02  1.08D+00  1.26D+00
                    CP:  1.06D+00  1.31D+00  1.45D+00  1.42D+00
 E= -555.206755736239     Delta-E=       -0.000008076758 Rises=F Damp=F
 DIIS: error= 5.23D-05 at cycle  10 NSaved=  10.
 NSaved=10 IEnMin=10 EnMin= -555.206755736239     IErMin=10 ErrMin= 5.23D-05
 ErrMax= 5.23D-05  0.00D+00 EMaxC= 1.00D-01 BMatC= 6.64D-07 BMatP= 3.06D-06
 IDIUse=1 WtCom= 1.00D+00 WtEn= 0.00D+00
 Coeff-Com:  0.840D-04-0.145D-03 0.460D-03 0.347D-02 0.460D-02-0.150D-01
 Coeff-Com: -0.101D+00-0.179D-01 0.367D+00 0.758D+00
 Coeff:      0.840D-04-0.145D-03 0.460D-03 0.347D-02 0.460D-02-0.150D-01
 Coeff:     -0.101D+00-0.179D-01 0.367D+00 0.758D+00
 Gap=     0.160 Goal=   None    Shift=    0.000
 RMSDP=9.09D-05 MaxDP=4.96D-03 DE=-8.08D-06 OVMax= 5.08D-04

 Cycle  11  Pass 1  IDiag  1:
 RMSU=  1.37D-05    CP:  9.02D-01  3.31D-01  1.74D-02  1.07D+00  1.26D+00
                    CP:  1.05D+00  1.32D+00  1.52D+00  1.62D+00  1.15D+00
 E= -555.206756629275     Delta-E=       -0.000000893035 Rises=F Damp=F
 DIIS: error= 1.73D-05 at cycle  11 NSaved=  11.
 NSaved=11 IEnMin=11 EnMin= -555.206756629275     IErMin=11 ErrMin= 1.73D-05
 ErrMax= 1.73D-05  0.00D+00 EMaxC= 1.00D-01 BMatC= 5.34D-08 BMatP= 6.64D-07
 IDIUse=1 WtCom= 1.00D+00 WtEn= 0.00D+00
 Coeff-Com:  0.559D-05-0.234D-04-0.146D-03-0.330D-04 0.151D-02 0.437D-02
 Coeff-Com: -0.539D-02-0.541D-01-0.258D-01 0.220D+00 0.860D+00
 Coeff:      0.559D-05-0.234D-04-0.146D-03-0.330D-04 0.151D-02 0.437D-02
 Coeff:     -0.539D-02-0.541D-01-0.258D-01 0.220D+00 0.860D+00
 Gap=     0.160 Goal=   None    Shift=    0.000
 RMSDP=3.41D-05 MaxDP=2.17D-03 DE=-8.93D-07 OVMax= 3.43D-04

 Cycle  12  Pass 1  IDiag  1:
 RMSU=  4.54D-06    CP:  9.01D-01  3.31D-01  1.87D-02  1.07D+00  1.26D+00
                    CP:  1.05D+00  1.33D+00  1.53D+00  1.69D+00  1.37D+00
                    CP:  1.12D+00
 E= -555.206756741542     Delta-E=       -0.000000112267 Rises=F Damp=F
 DIIS: error= 4.24D-06 at cycle  12 NSaved=  12.
 NSaved=12 IEnMin=12 EnMin= -555.206756741542     IErMin=12 ErrMin= 4.24D-06
 ErrMax= 4.24D-06  0.00D+00 EMaxC= 1.00D-01 BMatC= 4.09D-09 BMatP= 5.34D-08
 IDIUse=1 WtCom= 1.00D+00 WtEn= 0.00D+00
 Coeff-Com: -0.257D-04 0.478D-04-0.300D-04-0.230D-03-0.181D-04 0.288D-02
 Coeff-Com:  0.698D-02-0.160D-01-0.330D-01-0.175D-01 0.271D+00 0.786D+00
 Coeff:     -0.257D-04 0.478D-04-0.300D-04-0.230D-03-0.181D-04 0.288D-02
 Coeff:      0.698D-02-0.160D-01-0.330D-01-0.175D-01 0.271D+00 0.786D+00
 Gap=     0.160 Goal=   None    Shift=    0.000
 RMSDP=6.88D-06 MaxDP=4.08D-04 DE=-1.12D-07 OVMax= 4.94D-05

 Cycle  13  Pass 1  IDiag  1:
 RMSU=  1.55D-06    CP:  9.01D-01  3.31D-01  1.90D-02  1.07D+00  1.26D+00
                    CP:  1.05D+00  1.33D+00  1.53D+00  1.72D+00  1.40D+00
                    CP:  1.21D+00  1.20D+00
 E= -555.206756748465     Delta-E=       -0.000000006924 Rises=F Damp=F
 DIIS: error= 3.41D-06 at cycle  13 NSaved=  13.
 NSaved=13 IEnMin=13 EnMin= -555.206756748465     IErMin=13 ErrMin= 3.41D-06
 ErrMax= 3.41D-06  0.00D+00 EMaxC= 1.00D-01 BMatC= 1.11D-09 BMatP= 4.09D-09
 IDIUse=1 WtCom= 1.00D+00 WtEn= 0.00D+00
 Coeff-Com: -0.686D-05 0.123D-04-0.131D-04-0.944D-04-0.370D-03 0.386D-03
 Coeff-Com:  0.309D-02 0.256D-02-0.421D-02-0.456D-01-0.311D-01 0.274D+00
 Coeff-Com:  0.802D+00
 Coeff:     -0.686D-05 0.123D-04-0.131D-04-0.944D-04-0.370D-03 0.386D-03
 Coeff:      0.309D-02 0.256D-02-0.421D-02-0.456D-01-0.311D-01 0.274D+00
 Coeff:      0.802D+00
 Gap=     0.160 Goal=   None    Shift=    0.000
 RMSDP=2.19D-06 MaxDP=1.35D-04 DE=-6.92D-09 OVMax= 4.30D-05

 Cycle  14  Pass 1  IDiag  1:
 RMSU=  6.07D-07    CP:  9.01D-01  3.31D-01  1.90D-02  1.07D+00  1.26D+00
                    CP:  1.05D+00  1.33D+00  1.53D+00  1.73D+00  1.41D+00
                    CP:  1.24D+00  1.32D+00  1.23D+00
 E= -555.206756750337     Delta-E=       -0.000000001872 Rises=F Damp=F
 DIIS: error= 6.44D-07 at cycle  14 NSaved=  14.
 NSaved=14 IEnMin=14 EnMin= -555.206756750337     IErMin=14 ErrMin= 6.44D-07
 ErrMax= 6.44D-07  0.00D+00 EMaxC= 1.00D-01 BMatC= 7.81D-11 BMatP= 1.11D-09
 IDIUse=1 WtCom= 1.00D+00 WtEn= 0.00D+00
 Coeff-Com: -0.116D-05 0.306D-05 0.391D-05 0.128D-04-0.104D-03-0.234D-03
 Coeff-Com: -0.136D-03 0.186D-02 0.183D-02-0.611D-02-0.286D-01-0.765D-01
 Coeff-Com:  0.134D+00 0.974D+00
 Coeff:     -0.116D-05 0.306D-05 0.391D-05 0.128D-04-0.104D-03-0.234D-03
 Coeff:     -0.136D-03 0.186D-02 0.183D-02-0.611D-02-0.286D-01-0.765D-01
 Coeff:      0.134D+00 0.974D+00
 Gap=     0.160 Goal=   None    Shift=    0.000
 RMSDP=9.39D-07 MaxDP=7.35D-05 DE=-1.87D-09 OVMax= 1.86D-05

 Cycle  15  Pass 1  IDiag  1:
 RMSU=  2.14D-07    CP:  9.01D-01  3.31D-01  1.90D-02  1.07D+00  1.26D+00
                    CP:  1.05D+00  1.33D+00  1.54D+00  1.73D+00  1.42D+00
                    CP:  1.26D+00  1.38D+00  1.44D+00  1.31D+00
 E= -555.206756750558     Delta-E=       -0.000000000220 Rises=F Damp=F
 DIIS: error= 1.49D-07 at cycle  15 NSaved=  15.
 NSaved=15 IEnMin=15 EnMin= -555.206756750558     IErMin=15 ErrMin= 1.49D-07
 ErrMax= 1.49D-07  0.00D+00 EMaxC= 1.00D-01 BMatC= 8.85D-12 BMatP= 7.81D-11
 IDIUse=1 WtCom= 1.00D+00 WtEn= 0.00D+00
 Coeff-Com: -0.214D-06 0.912D-06 0.403D-05 0.150D-04-0.990D-05-0.115D-03
 Coeff-Com: -0.282D-03 0.499D-03 0.798D-03 0.176D-02-0.557D-02-0.596D-01
 Coeff-Com: -0.133D-01 0.380D+00 0.696D+00
 Coeff:     -0.214D-06 0.912D-06 0.403D-05 0.150D-04-0.990D-05-0.115D-03
 Coeff:     -0.282D-03 0.499D-03 0.798D-03 0.176D-02-0.557D-02-0.596D-01
 Coeff:     -0.133D-01 0.380D+00 0.696D+00
 Gap=     0.160 Goal=   None    Shift=    0.000
 RMSDP=2.19D-07 MaxDP=1.45D-05 DE=-2.20D-10 OVMax= 3.72D-06

 Cycle  16  Pass 1  IDiag  1:
 RMSU=  6.10D-08    CP:  9.01D-01  3.31D-01  1.90D-02  1.07D+00  1.26D+00
                    CP:  1.05D+00  1.33D+00  1.54D+00  1.73D+00  1.42D+00
                    CP:  1.25D+00  1.39D+00  1.49D+00  1.43D+00  1.14D+00
 E= -555.206756750612     Delta-E=       -0.000000000055 Rises=F Damp=F
 DIIS: error= 7.07D-08 at cycle  16 NSaved=  16.
 NSaved=16 IEnMin=16 EnMin= -555.206756750612     IErMin=16 ErrMin= 7.07D-08
 ErrMax= 7.07D-08  0.00D+00 EMaxC= 1.00D-01 BMatC= 9.07D-13 BMatP= 8.85D-12
 IDIUse=1 WtCom= 1.00D+00 WtEn= 0.00D+00
 Coeff-Com:  0.166D-06-0.304D-06 0.102D-05 0.173D-05 0.950D-05 0.124D-05
 Coeff-Com: -0.487D-04-0.130D-03-0.223D-03 0.115D-02 0.403D-02-0.637D-02
 Coeff-Com: -0.157D-01-0.527D-01 0.162D+00 0.908D+00
 Coeff:      0.166D-06-0.304D-06 0.102D-05 0.173D-05 0.950D-05 0.124D-05
 Coeff:     -0.487D-04-0.130D-03-0.223D-03 0.115D-02 0.403D-02-0.637D-02
 Coeff:     -0.157D-01-0.527D-01 0.162D+00 0.908D+00
 Gap=     0.160 Goal=   None    Shift=    0.000
 RMSDP=1.16D-07 MaxDP=9.38D-06 DE=-5.46D-11 OVMax= 2.12D-06

 Cycle  17  Pass 1  IDiag  1:
 RMSU=  2.64D-08    CP:  9.01D-01  3.31D-01  1.90D-02  1.07D+00  1.26D+00
                    CP:  1.05D+00  1.33D+00  1.54D+00  1.73D+00  1.42D+00
                    CP:  1.25D+00  1.39D+00  1.51D+00  1.46D+00  1.32D+00
                    CP:  1.32D+00
 E= -555.206756750591     Delta-E=        0.000000000021 Rises=F Damp=F
 DIIS: error= 2.87D-08 at cycle  17 NSaved=  17.
 NSaved=17 IEnMin=16 EnMin= -555.206756750612     IErMin=17 ErrMin= 2.87D-08
 ErrMax= 2.87D-08  0.00D+00 EMaxC= 1.00D-01 BMatC= 2.10D-13 BMatP= 9.07D-13
 IDIUse=1 WtCom= 1.00D+00 WtEn= 0.00D+00
 Coeff-Com:  0.673D-07-0.136D-06 0.138D-06-0.211D-06 0.352D-05 0.739D-05
 Coeff-Com:  0.286D-05-0.452D-04-0.107D-03-0.761D-05 0.120D-02 0.228D-02
 Coeff-Com:  0.495D-03-0.451D-01-0.629D-01 0.216D+00 0.889D+00
 Coeff:      0.673D-07-0.136D-06 0.138D-06-0.211D-06 0.352D-05 0.739D-05
 Coeff:      0.286D-05-0.452D-04-0.107D-03-0.761D-05 0.120D-02 0.228D-02
 Coeff:      0.495D-03-0.451D-01-0.629D-01 0.216D+00 0.889D+00
 Gap=     0.160 Goal=   None    Shift=    0.000
 RMSDP=4.47D-08 MaxDP=2.20D-06 DE= 2.14D-11 OVMax= 6.57D-07

 Cycle  18  Pass 1  IDiag  1:
 RMSU=  8.91D-09    CP:  9.01D-01  3.31D-01  1.90D-02  1.07D+00  1.26D+00
                    CP:  1.05D+00  1.33D+00  1.54D+00  1.73D+00  1.42D+00
                    CP:  1.25D+00  1.39D+00  1.52D+00  1.47D+00  1.38D+00
                    CP:  1.51D+00  1.26D+00
 E= -555.206756750583     Delta-E=        0.000000000008 Rises=F Damp=F
 DIIS: error= 9.59D-09 at cycle  18 NSaved=  18.
 NSaved=18 IEnMin=16 EnMin= -555.206756750612     IErMin=18 ErrMin= 9.59D-09
 ErrMax= 9.59D-09  0.00D+00 EMaxC= 1.00D-01 BMatC= 2.98D-14 BMatP= 2.10D-13
 IDIUse=1 WtCom= 1.00D+00 WtEn= 0.00D+00
 Coeff-Com:  0.251D-07-0.525D-07-0.114D-06-0.245D-06 0.691D-06 0.418D-05
 Coeff-Com:  0.544D-05-0.123D-05-0.120D-04-0.166D-03 0.755D-04 0.188D-02
 Coeff-Com:  0.334D-02-0.121D-01-0.600D-01-0.287D-01 0.407D+00 0.688D+00
 Coeff:      0.251D-07-0.525D-07-0.114D-06-0.245D-06 0.691D-06 0.418D-05
 Coeff:      0.544D-05-0.123D-05-0.120D-04-0.166D-03 0.755D-04 0.188D-02
 Coeff:      0.334D-02-0.121D-01-0.600D-01-0.287D-01 0.407D+00 0.688D+00
 Gap=     0.160 Goal=   None    Shift=    0.000
 RMSDP=1.15D-08 MaxDP=6.92D-07 DE= 7.50D-12 OVMax= 1.24D-07

 Cycle  19  Pass 1  IDiag  1:
 RMSU=  3.21D-09    CP:  9.01D-01  3.31D-01  1.90D-02  1.07D+00  1.26D+00
                    CP:  1.05D+00  1.33D+00  1.54D+00  1.73D+00  1.42D+00
                    CP:  1.25D+00  1.39D+00  1.52D+00  1.47D+00  1.40D+00
                    CP:  1.54D+00  1.40D+00  1.04D+00
 E= -555.206756750599     Delta-E=       -0.000000000016 Rises=F Damp=F
 DIIS: error= 2.70D-09 at cycle  19 NSaved=  19.
 NSaved=19 IEnMin=16 EnMin= -555.206756750612     IErMin=19 ErrMin= 2.70D-09
 ErrMax= 2.70D-09  0.00D+00 EMaxC= 1.00D-01 BMatC= 1.22D-15 BMatP= 2.98D-14
 IDIUse=1 WtCom= 1.00D+00 WtEn= 0.00D+00
 Large coefficients: NSaved= 19 BigCof=    0.00 CofMax=   10.00 Det=-5.47D-15
 Inversion failed.  Reducing to 18 matrices.
 Large coefficients: NSaved= 18 BigCof=    0.00 CofMax=   10.00 Det=-5.56D-15
 Inversion failed.  Reducing to 17 matrices.
 Coeff-Com: -0.432D-07-0.398D-08-0.199D-06 0.466D-06 0.503D-06 0.711D-05
 Coeff-Com:  0.775D-05-0.561D-04-0.119D-03 0.182D-03 0.976D-03 0.205D-02
 Coeff-Com: -0.107D-01-0.271D-01 0.240D-01 0.164D+00 0.846D+00
 Coeff:     -0.432D-07-0.398D-08-0.199D-06 0.466D-06 0.503D-06 0.711D-05
 Coeff:      0.775D-05-0.561D-04-0.119D-03 0.182D-03 0.976D-03 0.205D-02
 Coeff:     -0.107D-01-0.271D-01 0.240D-01 0.164D+00 0.846D+00
 Gap=     0.160 Goal=   None    Shift=    0.000
 RMSDP=4.64D-09 MaxDP=3.98D-07 DE=-1.57D-11 OVMax= 3.01D-08

 SCF Done:  E(RCAM-B3LYP) =  -555.206756751     A.U. after   19 cycles
            NFock= 19  Conv=0.46D-08     -V/T= 2.0051
 KE= 5.523836570464D+02 PE=-2.684681050090D+03 EE= 8.859397110115D+02
 Leave Link  502 at Sun Nov 25 19:46:32 2018, MaxMem=  2684354560 cpu:            1778.4 elap:             111.4
 (Enter /panfs/pfs.local/work/caricato/m330c584/PANFS-WORK-MCARICATO/gdv_i09/gdv/l801.exe)
 DoSCS=F DFT=T ScalE2(SS,OS)=  1.000000  1.000000
 ExpMin= 3.60D-02 ExpMax= 8.59D+03 ExpMxC= 1.30D+03 IAcc=3 IRadAn=         5 AccDes= 0.00D+00
 HarFok:  IExCor=  205 AccDes= 0.00D+00 IRadAn=         5 IDoV=-2 UseB2=F ITyADJ=14
 ICtDFT= 12500011 ScaDFX=  1.000000  1.000000  1.000000  1.000000
 Largest valence mixing into a core orbital is  4.84D-05
 Largest core mixing into a valence orbital is  1.23D-05
 Range of M.O.s used for correlation:    14   349
 NBasis=   349 NAE=    45 NBE=    45 NFC=    13 NFV=     0
 NROrb=    336 NOA=    32 NOB=    32 NVA=   304 NVB=   304

 **** Warning!!: The largest alpha MO coefficient is  0.20600035D+03

 Leave Link  801 at Sun Nov 25 19:46:34 2018, MaxMem=  2684354560 cpu:              18.7 elap:               1.2
 (Enter /panfs/pfs.local/work/caricato/m330c584/PANFS-WORK-MCARICATO/gdv_i09/gdv/l914.exe)
 RHF ground state
 Two-electron integral symmetry not used.
 MDV=  2684354560 DFT=T DoStab=F Mixed=T DoRPA=T DoScal=F NonHer=T
 Making orbital integer symmetry assigments:
   400 initial guesses have been made.
 Convergence on wavefunction:    0.001000000000000
 Davidson Disk Diagonalization:  ConvIn= 1.00D-03 SkipCon=T Conv= 1.00D-03.
 Max sub-space:  6000 roots to seek:   400 dimension of matrix:        19456
 Iteration     1 Dimension   400 NMult     0 NNew    400
 CISAX will form   400 AO SS matrices at one time.
 NMat=   400 NSing=   400 JSym2X= 0.
 FoFJK:  IHMeth= 1 ICntrl=       0 DoSepK=T KAlg= 0 I1Cent=           0 FoldK=F
 IRaf=         1 NMat=     800 IRICut=       1 DoRegI=T DoRafI=F ISym2E= 0 IDoP0=3 IntGTp=3.
 FoFCou: FMM=F IPFlag=           0 FMFlag=      100000 FMFlg1=           0
         NFxFlg=           0 DoJE=F BraDBF=F KetDBF=F FulRan=T
         wScrn=  0.000000 ICntrl=       500 IOpCl=  0 I1Cent=           0 NGrid=           0
         NMat0=  400 NMatS0=    400 NMatT0=    0 NMatD0=  400 NMtDS0=    0 NMtDT0=    0
 Symmetry not used in FoFCou.
 New state      2 was old state      4
 New state      3 was old state      2
 New state      4 was old state      5
 New state      5 was old state      3
 New state      8 was old state     14
 New state      9 was old state     12
 New state     10 was old state     16
 New state     11 was old state     10
 New state     12 was old state      8
 New state     14 was old state     15
 New state     15 was old state      9
 New state     16 was old state     19
 New state     18 was old state     29
 New state     19 was old state     11
 New state     20 was old state     22
 New state     21 was old state     52
 New state     22 was old state     25
 New state     24 was old state     18
 New state     25 was old state     40
 New state     26 was old state     20
 New state     27 was old state     21
 New state     28 was old state     26
 New state     29 was old state     28
 New state     30 was old state     38
 New state     31 was old state     24
 New state     32 was old state     27
 New state     33 was old state     36
 New state     34 was old state     33
 New state     35 was old state     30
 New state     36 was old state     39
 New state     37 was old state     35
 New state     38 was old state     42
 New state     39 was old state     34
 New state     40 was old state     31
 New state     41 was old state     46
 New state     42 was old state     41
 New state     43 was old state     53
 New state     44 was old state     56
 New state     45 was old state     55
 New state     46 was old state     47
 New state     47 was old state     45
 New state     48 was old state     44
 New state     49 was old state     50
 New state     50 was old state     58
 New state     51 was old state     48
 New state     52 was old state     49
 New state     53 was old state     37
 New state     54 was old state     43
 New state     55 was old state     62
 New state     56 was old state     60
 New state     57 was old state     64
 New state     58 was old state    126
 New state     59 was old state    168
 New state     60 was old state     67
 New state     61 was old state     65
 New state     62 was old state     63
 New state     63 was old state     79
 New state     64 was old state     54
 New state     65 was old state     57
 New state     66 was old state     51
 New state     67 was old state     70
 New state     68 was old state     86
 New state     69 was old state    141
 New state     70 was old state     72
 New state     71 was old state     75
 New state     72 was old state     81
 New state     73 was old state     69
 New state     74 was old state     91
 New state     75 was old state     59
 New state     76 was old state     82
 New state     77 was old state     95
 New state     78 was old state     74
 New state     79 was old state     77
 New state     80 was old state     89
 New state     81 was old state     76
 New state     82 was old state     80
 New state     83 was old state     92
 New state     84 was old state     73
 New state     85 was old state     78
 New state     86 was old state    103
 New state     87 was old state     83
 New state     88 was old state     90
 New state     89 was old state    110
 New state     90 was old state     96
 New state     91 was old state    184
 New state     92 was old state     85
 New state     94 was old state    240
 New state     95 was old state    105
 New state     96 was old state     98
 New state     97 was old state    123
 New state     98 was old state    117
 New state     99 was old state    111
 New state    100 was old state    203
 Excitation Energies [eV] at current iteration:
 Root      1 :     2.495023174301981
 Root      2 :     3.199182717121301
 Root      3 :     3.571041336863356
 Root      4 :     3.881372268447303
 Root      5 :     3.919368765801354
 Root      6 :     4.056593066905816
 Root      7 :     4.177275218916536
 Root      8 :     4.428343082309214
 Root      9 :     4.516229896367808
 Root     10 :     4.649493950713827
 Root     11 :     4.692310586168661
 Root     12 :     4.773719080855334
 Root     13 :     4.958448722948281
 Root     14 :     5.127508222004629
 Root     15 :     5.204458779816422
 Root     16 :     5.222322121876778
 Root     17 :     5.370711108267308
 Root     18 :     5.391963737299773
 Root     19 :     5.410194721691179
 Root     20 :     5.516907408694321
 Root     21 :     5.540869211851134
 Root     22 :     5.568303833128661
 Root     23 :     5.632070682600170
 Root     24 :     5.751936051849686
 Root     25 :     5.788687660656596
 Root     26 :     5.812707636108113
 Root     27 :     5.836421518117485
 Root     28 :     5.860280175222944
 Root     29 :     5.928798077130190
 Root     30 :     6.098562784244878
 Root     31 :     6.171415905323152
 Root     32 :     6.195600667485561
 Root     33 :     6.225226453990174
 Root     34 :     6.314767034914442
 Root     35 :     6.333535103619543
 Root     36 :     6.358624967587946
 Root     37 :     6.406018648047069
 Root     38 :     6.493968489957305
 Root     39 :     6.536837481277336
 Root     40 :     6.551596131748444
 Root     41 :     6.763545133117883
 Root     42 :     6.820505546313504
 Root     43 :     6.847058522017798
 Root     44 :     6.879747821390895
 Root     45 :     6.908875116808783
 Root     46 :     6.916145856317105
 Root     47 :     6.953119345644609
 Root     48 :     6.963764598185579
 Root     49 :     6.989014061048523
 Root     50 :     6.997177832928892
 Root     51 :     7.054483056286110
 Root     52 :     7.105461893904769
 Root     53 :     7.128868654158094
 Root     54 :     7.144582888859184
 Root     55 :     7.223955115018902
 Root     56 :     7.257538644761835
 Root     57 :     7.274421656872282
 Root     58 :     7.310731620089189
 Root     59 :     7.320498208011204
 Root     60 :     7.351973141468651
 Root     61 :     7.376516164206585
 Root     62 :     7.406595845235740
 Root     63 :     7.414639305985943
 Root     64 :     7.416544982774627
 Root     65 :     7.466696621973683
 Root     66 :     7.517620289392480
 Root     67 :     7.529584196059099
 Root     68 :     7.559289364726495
 Root     69 :     7.575217804547330
 Root     70 :     7.618177771309793
 Root     71 :     7.686653228653080
 Root     72 :     7.770178859746427
 Root     73 :     7.796730708122102
 Root     74 :     7.830477554545085
 Root     75 :     7.852710280677728
 Root     76 :     7.920107476170023
 Root     77 :     7.944665004349629
 Root     78 :     7.979064119282956
 Root     79 :     7.995271245435140
 Root     80 :     8.006666918264953
 Root     81 :     8.023688530897392
 Root     82 :     8.038728843707538
 Root     83 :     8.103760995293060
 Root     84 :     8.140792966867210
 Root     85 :     8.191832677771375
 Root     86 :     8.206663975912312
 Root     87 :     8.216911167624112
 Root     88 :     8.232545422597381
 Root     89 :     8.234183035713439
 Root     90 :     8.254742666139286
 Root     91 :     8.292890013110691
 Root     92 :     8.304322980749193
 Root     93 :     8.320418857372829
 Root     94 :     8.337643859556438
 Root     95 :     8.388832182831440
 Root     96 :     8.408931883545520
 Root     97 :     8.441594573763927
 Root     98 :     8.494045161621402
 Root     99 :     8.528333077616905
 Root    100 :     8.539865734846721
 Root    101 :     8.545207770182074
 Root    102 :     8.571226638934458
 Root    103 :     8.596356294140149
 Root    104 :     8.600506009883675
 Root    105 :     8.620495558915909
 Root    106 :     8.623223718943763
 Root    107 :     8.632352172802911
 Root    108 :     8.688352546815594
 Root    109 :     8.708351179388567
 Root    110 :     8.720051751751669
 Root    111 :     8.740688588503838
 Root    112 :     8.779087394912041
 Root    113 :     8.793278792354434
 Root    114 :     8.806344800979259
 Root    115 :     8.816190679600387
 Root    116 :     8.827226538992010
 Root    117 :     8.831022130875599
 Root    118 :     8.870575555736814
 Root    119 :     8.903419306805977
 Root    120 :     8.937064931961070
 Root    121 :     8.953057766718448
 Root    122 :     8.958313650113052
 Root    123 :     8.969285222923425
 Root    124 :     8.986956873526232
 Root    125 :     9.025184259139548
 Root    126 :     9.035218865957846
 Root    127 :     9.059329005875393
 Root    128 :     9.060420437774930
 Root    129 :     9.121833548174580
 Root    130 :     9.142494115620710
 Root    131 :     9.145301065907621
 Root    132 :     9.167755201088749
 Root    133 :     9.172526867305900
 Root    134 :     9.176365769978453
 Root    135 :     9.197540688418288
 Root    136 :     9.231491518086607
 Root    137 :     9.235266180672694
 Root    138 :     9.243467182161686
 Root    139 :     9.255324604527182
 Root    140 :     9.270883769326803
 Root    141 :     9.286347711473670
 Root    142 :     9.292789573568472
 Root    143 :     9.306032850818811
 Root    144 :     9.324071941684819
 Root    145 :     9.359819383928446
 Root    146 :     9.373593374504848
 Root    147 :     9.398668844729931
 Root    148 :     9.420542646749515
 Root    149 :     9.443216276751201
 Root    150 :     9.451677115853624
 Root    151 :     9.468522426119300
 Root    152 :     9.474711527018570
 Root    153 :     9.489165147773745
 Root    154 :     9.496455928865799
 Root    155 :     9.518088515862916
 Root    156 :     9.524941830207778
 Root    157 :     9.536354551998926
 Root    158 :     9.552815450749872
 Root    159 :     9.597000788676183
 Root    160 :     9.608094487608019
 Root    161 :     9.644653305541773
 Root    162 :     9.657396276737728
 Root    163 :     9.668000881952485
 Root    164 :     9.699251485917030
 Root    165 :     9.706558693344849
 Root    166 :     9.720491745092987
 Root    167 :     9.737130860438612
 Root    168 :     9.754048670853194
 Root    169 :     9.762887122596570
 Root    170 :     9.773047295254075
 Root    171 :     9.782091164343479
 Root    172 :     9.798287826724083
 Root    173 :     9.801858293576803
 Root    174 :     9.812554774666934
 Root    175 :     9.824103720183535
 Root    176 :     9.857148808504640
 Root    177 :     9.871895750442290
 Root    178 :     9.896553398121165
 Root    179 :     9.937505755953062
 Root    180 :     9.949345135773573
 Root    181 :     9.962487618879777
 Root    182 :     9.983538101761907
 Root    183 :     9.993775466249469
 Root    184 :    10.007889241803100
 Root    185 :    10.022714181489230
 Root    186 :    10.040542106507210
 Root    187 :    10.051545430596220
 Root    188 :    10.065946489937090
 Root    189 :    10.068980320194900
 Root    190 :    10.090206793455160
 Root    191 :    10.093772217108480
 Root    192 :    10.103762063122180
 Root    193 :    10.109521736168470
 Root    194 :    10.118516260254160
 Root    195 :    10.139105049982540
 Root    196 :    10.157094633551020
 Root    197 :    10.173772978104620
 Root    198 :    10.179120169412750
 Root    199 :    10.187310115500110
 Root    200 :    10.196368147036650
 Root    201 :    10.208880841799770
 Root    202 :    10.232409182286310
 Root    203 :    10.256297153814280
 Root    204 :    10.263056410889700
 Root    205 :    10.268906942991840
 Root    206 :    10.289288967584870
 Root    207 :    10.290654051350940
 Root    208 :    10.316413428518020
 Root    209 :    10.328346069460630
 Root    210 :    10.343357745383770
 Root    211 :    10.381019973857940
 Root    212 :    10.406490400746060
 Root    213 :    10.409236044118270
 Root    214 :    10.413536009512190
 Root    215 :    10.423400257180370
 Root    216 :    10.431120987995000
 Root    217 :    10.447826391820980
 Root    218 :    10.458661716327510
 Root    219 :    10.480362158906760
 Root    220 :    10.506134607073530
 Root    221 :    10.532711898859800
 Root    222 :    10.545883828994910
 Root    223 :    10.554184692343690
 Root    224 :    10.566933338252540
 Root    225 :    10.586255720103450
 Root    226 :    10.607095131715430
 Root    227 :    10.618422908858180
 Root    228 :    10.621821476446060
 Root    229 :    10.635112338533760
 Root    230 :    10.641079062879460
 Root    231 :    10.644324536459250
 Root    232 :    10.663874663437780
 Root    233 :    10.670097760104260
 Root    234 :    10.681460109899190
 Root    235 :    10.693309364329980
 Root    236 :    10.713138657363120
 Root    237 :    10.721855830725210
 Root    238 :    10.747097250056070
 Root    239 :    10.764994440165030
 Root    240 :    10.769302216403370
 Root    241 :    10.780063402542610
 Root    242 :    10.783493006660430
 Root    243 :    10.815507689112410
 Root    244 :    10.832673057321020
 Root    245 :    10.843576392065700
 Root    246 :    10.856304410884570
 Root    247 :    10.871010670561640
 Root    248 :    10.879748165195330
 Root    249 :    10.887525976078510
 Root    250 :    10.898447003188210
 Root    251 :    10.924695663377510
 Root    252 :    10.933278802752590
 Root    253 :    10.947669119714850
 Root    254 :    10.963506751136080
 Root    255 :    10.969765090185900
 Root    256 :    10.980985711764050
 Root    257 :    10.994484991694650
 Root    258 :    11.002566785786570
 Root    259 :    11.005724318052950
 Root    260 :    11.021282155334030
 Root    261 :    11.033083759677450
 Root    262 :    11.036229054725170
 Root    263 :    11.056399342428570
 Root    264 :    11.059335744729890
 Root    265 :    11.071316331685320
 Root    266 :    11.082947316251040
 Root    267 :    11.092936126251110
 Root    268 :    11.101444223743440
 Root    269 :    11.104898391059470
 Root    270 :    11.117359504817050
 Root    271 :    11.124956409474130
 Root    272 :    11.143463105464930
 Root    273 :    11.171877413241240
 Root    274 :    11.182832607377910
 Root    275 :    11.193826082566960
 Root    276 :    11.201981878961510
 Root    277 :    11.207707244925010
 Root    278 :    11.233871012815520
 Root    279 :    11.261302980910740
 Root    280 :    11.267496306424070
 Root    281 :    11.284487237306090
 Root    282 :    11.288989959016660
 Root    283 :    11.298843399547110
 Root    284 :    11.306587159059150
 Root    285 :    11.313060834269000
 Root    286 :    11.334780515399060
 Root    287 :    11.343888576651180
 Root    288 :    11.355660865552530
 Root    289 :    11.375278275886350
 Root    290 :    11.384864506136780
 Root    291 :    11.394590156052140
 Root    292 :    11.398660290245100
 Root    293 :    11.413307053404340
 Root    294 :    11.418844712760240
 Root    295 :    11.434438183657610
 Root    296 :    11.447984163692380
 Root    297 :    11.463876002974300
 Root    298 :    11.481508719381060
 Root    299 :    11.503512469943690
 Root    300 :    11.518791972797430
 Root    301 :    11.527080377656400
 Root    302 :    11.537671675284970
 Root    303 :    11.542175616761800
 Root    304 :    11.547628326174240
 Root    305 :    11.561675158456040
 Root    306 :    11.564054978734520
 Root    307 :    11.578506842333000
 Root    308 :    11.581995951049630
 Root    309 :    11.598309771989900
 Root    310 :    11.600502856615010
 Root    311 :    11.622460572196620
 Root    312 :    11.633648512507990
 Root    313 :    11.651635695213830
 Root    314 :    11.667862955717840
 Root    315 :    11.680969521211750
 Root    316 :    11.685152035720930
 Root    317 :    11.693497410421150
 Root    318 :    11.704759613522760
 Root    319 :    11.718863596161150
 Root    320 :    11.726646822122920
 Root    321 :    11.736921912795880
 Root    322 :    11.744312834522230
 Root    323 :    11.755012549999680
 Root    324 :    11.761252137225960
 Root    325 :    11.776695019041350
 Root    326 :    11.780311407235960
 Root    327 :    11.786901224355300
 Root    328 :    11.799819942846690
 Root    329 :    11.813778963574340
 Root    330 :    11.834070679544180
 Root    331 :    11.866639944721750
 Root    332 :    11.869749524379770
 Root    333 :    11.888935220288080
 Root    334 :    11.896881651354970
 Root    335 :    11.898120912309600
 Root    336 :    11.901838910326920
 Root    337 :    11.911368511203020
 Root    338 :    11.927495643518870
 Root    339 :    11.933679466431230
 Root    340 :    11.946529912428990
 Root    341 :    11.949421162676240
 Root    342 :    11.965555350907850
 Root    343 :    11.970366001877840
 Root    344 :    11.982628746843980
 Root    345 :    12.004716900363750
 Root    346 :    12.017774455615070
 Root    347 :    12.027882940686540
 Root    348 :    12.033644155707080
 Root    349 :    12.051019848537540
 Root    350 :    12.053851296455350
 Root    351 :    12.066079468547700
 Root    352 :    12.075790787993830
 Root    353 :    12.095693654164240
 Root    354 :    12.101236599685740
 Root    355 :    12.117139087948800
 Root    356 :    12.130540038594480
 Root    357 :    12.142322094930820
 Root    358 :    12.146991945925610
 Root    359 :    12.150343215556960
 Root    360 :    12.159420485906320
 Root    361 :    12.175016455210790
 Root    362 :    12.201998882245820
 Root    363 :    12.223435514993940
 Root    364 :    12.224967335189300
 Root    365 :    12.250599063432980
 Root    366 :    12.256449166910810
 Root    367 :    12.272899962492360
 Root    368 :    12.275871744660940
 Root    369 :    12.287612533343750
 Root    370 :    12.294662293320690
 Root    371 :    12.311233279306040
 Root    372 :    12.313624405272360
 Root    373 :    12.325147664365530
 Root    374 :    12.347294040897540
 Root    375 :    12.366021512830070
 Root    376 :    12.368037880850820
 Root    377 :    12.387736352099640
 Root    378 :    12.398633372211820
 Root    379 :    12.406194797582240
 Root    380 :    12.413229352306810
 Root    381 :    12.437706642956930
 Root    382 :    12.451088576875870
 Root    383 :    12.468525623830050
 Root    384 :    12.503036328899030
 Root    385 :    12.533122637863200
 Root    386 :    12.555668462930770
 Root    387 :    12.564670731217190
 Root    388 :    12.610027396076220
 Root    389 :    12.642910714407310
 Root    390 :    12.666635909937760
 Root    391 :    12.687971458904530
 Root    392 :    12.719793882598390
 Root    393 :    12.733961120072410
 Root    394 :    12.761613213075980
 Root    395 :    12.777420072778770
 Root    396 :    12.820446202329340
 Root    397 :    12.827666777051220
 Root    398 :    12.840569937167150
 Root    399 :    12.911661414181180
 Root    400 :    12.921776082156420
 Iteration     2 Dimension   600 NMult   400 NNew    200
 CISAX will form   200 AO SS matrices at one time.
 NMat=   200 NSing=   200 JSym2X= 0.
 Root      1 not converged, maximum delta is    0.019886303237323
 Root      2 not converged, maximum delta is    0.022120695597318
 Root      3 not converged, maximum delta is    0.013842413872837
 Root      4 not converged, maximum delta is    0.036753737397119
 Root      5 not converged, maximum delta is    0.040775626585321
 Root      6 not converged, maximum delta is    0.085036525938366
 Root      7 not converged, maximum delta is    0.032803933765547
 New state      8 was old state      9
 Root      8 not converged, maximum delta is    0.240735605998056
 New state      9 was old state      8
 Root      9 not converged, maximum delta is    0.021667441067278
 Root     10 not converged, maximum delta is    0.234383928330935
 Root     11 not converged, maximum delta is    0.156228647044368
 Root     12 not converged, maximum delta is    0.014861879473968
 Root     13 not converged, maximum delta is    0.029392679083781
 Root     14 not converged, maximum delta is    0.158237146050396
 Root     15 not converged, maximum delta is    0.120623024266577
 Root     16 not converged, maximum delta is    0.126215367010021
 New state     17 was old state     20
 Root     17 not converged, maximum delta is    0.291965108470397
 New state     18 was old state     17
 Root     18 not converged, maximum delta is    0.201921030148347
 New state     19 was old state     18
 Root     19 not converged, maximum delta is    0.214306708982496
 New state     20 was old state     19
 Root     20 not converged, maximum delta is    0.151054211365442
 New state     21 was old state     25
 Root     21 not converged, maximum delta is    0.121211349779911
 New state     22 was old state     21
 Root     22 not converged, maximum delta is    0.166063056774392
 New state     23 was old state     22
 Root     23 not converged, maximum delta is    0.054976629724115
 New state     24 was old state     23
 Root     24 not converged, maximum delta is    0.337623304135677
 New state     25 was old state     24
 Root     25 not converged, maximum delta is    0.104271438620366
 Root     26 not converged, maximum delta is    0.212297266404919
 Root     27 not converged, maximum delta is    0.280781014384055
 Root     28 not converged, maximum delta is    0.245293967408426
 Root     29 not converged, maximum delta is    0.064765995692640
 Root     30 not converged, maximum delta is    0.123920618213511
 New state     31 was old state     36
 Root     31 not converged, maximum delta is    0.254955002266448
 New state     32 was old state     31
 Root     32 not converged, maximum delta is    0.170587642674370
 New state     33 was old state     32
 Root     33 not converged, maximum delta is    0.232584657713989
 New state     34 was old state     33
 Root     34 not converged, maximum delta is    0.191701799367394
 New state     35 was old state     34
 Root     35 not converged, maximum delta is    0.217535456780127
 New state     36 was old state     35
 Root     36 not converged, maximum delta is    0.333202492006277
 Root     37 not converged, maximum delta is    0.023224288271135
 Root     38 not converged, maximum delta is    0.185651347827908
 New state     39 was old state     40
 Root     39 not converged, maximum delta is    0.172433687536362
 New state     40 was old state     39
 Root     40 not converged, maximum delta is    0.113012827883184
 New state     41 was old state     44
 Root     41 not converged, maximum delta is    0.323942000750009
 New state     42 was old state     41
 Root     42 not converged, maximum delta is    0.039836030870520
 New state     43 was old state     42
 Root     43 not converged, maximum delta is    0.040666732291335
 New state     44 was old state     43
 Root     44 not converged, maximum delta is    0.053439158336680
 New state     45 was old state     50
 Root     45 not converged, maximum delta is    0.260132076169040
 New state     46 was old state     45
 Root     46 not converged, maximum delta is    0.388979508815098
 New state     47 was old state     46
 Root     47 not converged, maximum delta is    0.152950520971365
 Root     48 not converged, maximum delta is    0.263015309332606
 New state     49 was old state     47
 Root     49 not converged, maximum delta is    0.206066436722390
 New state     50 was old state     49
 Root     50 not converged, maximum delta is    0.566614530625255
 New state     51 was old state     56
 Root     51 not converged, maximum delta is    0.422093405210272
 New state     52 was old state     51
 Root     52 not converged, maximum delta is    0.083413970103294
 New state     53 was old state     52
 Root     53 not converged, maximum delta is    0.174542687442333
 New state     54 was old state     55
 Root     54 not converged, maximum delta is    0.229553674967103
 New state     55 was old state     54
 Root     55 not converged, maximum delta is    0.177958470435000
 New state     56 was old state     60
 Root     56 not converged, maximum delta is    0.287834989498659
 New state     57 was old state     53
 Root     57 not converged, maximum delta is    0.104847664218752
 New state     58 was old state     59
 Root     58 not converged, maximum delta is    0.188268641119683
 New state     59 was old state     57
 Root     59 not converged, maximum delta is    0.415467466944131
 New state     60 was old state     58
 Root     60 not converged, maximum delta is    0.244782318694903
 Root     61 not converged, maximum delta is    0.203604203223534
 New state     62 was old state     65
 Root     62 not converged, maximum delta is    0.272535918695931
 New state     63 was old state     62
 Root     63 not converged, maximum delta is    0.142952917177195
 New state     64 was old state     63
 Root     64 not converged, maximum delta is    0.238116923765152
 New state     65 was old state     69
 Root     65 not converged, maximum delta is    0.254390444349007
 New state     66 was old state     64
 Root     66 not converged, maximum delta is    0.123026683314935
 Root     67 not converged, maximum delta is    0.385432253312918
 New state     68 was old state     66
 Root     68 not converged, maximum delta is    0.131859537632428
 New state     69 was old state     68
 Root     69 not converged, maximum delta is    0.342989265094506
 New state     70 was old state     73
 Root     70 not converged, maximum delta is    0.386660662647837
 New state     71 was old state     70
 Root     71 not converged, maximum delta is    0.025818589971818
 New state     72 was old state     71
 Root     72 not converged, maximum delta is    0.239110151670849
 New state     73 was old state     74
 Root     73 not converged, maximum delta is    0.334215254798888
 New state     74 was old state     72
 Root     74 not converged, maximum delta is    0.149947578193362
 New state     75 was old state     97
 Root     75 not converged, maximum delta is    0.311166797213826
 New state     76 was old state     75
 Root     76 not converged, maximum delta is    0.156330264565949
 New state     77 was old state     76
 Root     77 not converged, maximum delta is    0.173873282553835
 New state     78 was old state     79
 Root     78 not converged, maximum delta is    0.188914017162676
 New state     79 was old state     77
 Root     79 not converged, maximum delta is    0.196012557080936
 New state     80 was old state     78
 Root     80 not converged, maximum delta is    0.224037073705334
 New state     81 was old state     80
 Root     81 not converged, maximum delta is    0.075989694881309
 New state     82 was old state     81
 Root     82 not converged, maximum delta is    0.089072546772226
 New state     83 was old state     82
 Root     83 not converged, maximum delta is    0.127128481838662
 New state     84 was old state     83
 Root     84 not converged, maximum delta is    0.297946073679298
 Root     85 not converged, maximum delta is    0.329646636826352
 New state     86 was old state     84
 Root     86 not converged, maximum delta is    0.236895749372297
 New state     87 was old state     86
 Root     87 not converged, maximum delta is    0.254908522241361
 New state     88 was old state     94
 Root     88 not converged, maximum delta is    0.194781622176909
 New state     89 was old state     88
 Root     89 not converged, maximum delta is    0.244856808487249
 New state     90 was old state     87
 Root     90 not converged, maximum delta is    0.345934432550024
 New state     91 was old state     89
 Root     91 not converged, maximum delta is    0.277853966916276
 New state     92 was old state     90
 Root     92 not converged, maximum delta is    0.312486823593162
 New state     93 was old state     92
 Root     93 not converged, maximum delta is    0.346141699049629
 New state     94 was old state     91
 Root     94 not converged, maximum delta is    0.219161177576827
 Root     95 not converged, maximum delta is    0.284984968073148
 New state     96 was old state     93
 Root     96 not converged, maximum delta is    0.167108062901553
 New state     97 was old state    100
 Root     97 not converged, maximum delta is    0.268101718522754
 New state     98 was old state     96
 Root     98 not converged, maximum delta is    0.225885973126231
 New state     99 was old state     98
 Root     99 not converged, maximum delta is    0.396402485803282
 New state    100 was old state     99
 Root    100 not converged, maximum delta is    0.205748095545862
 Excitation Energies [eV] at current iteration:
 Root      1 :     2.322383773171554   Change is   -0.172639401130426
 Root      2 :     3.161747988798580   Change is   -0.037434728322720
 Root      3 :     3.564888808092516   Change is   -0.006152528770840
 Root      4 :     3.860380147716965   Change is   -0.020992120730339
 Root      5 :     3.913737598149539   Change is   -0.005631167651815
 Root      6 :     4.030538509612563   Change is   -0.026054557293253
 Root      7 :     4.165095408621323   Change is   -0.012179810295212
 Root      8 :     4.275266689377709   Change is   -0.240963206990099
 Root      9 :     4.396629386172767   Change is   -0.031713696136447
 Root     10 :     4.589339978860423   Change is   -0.060153971853405
 Root     11 :     4.657363227793694   Change is   -0.034947358374967
 Root     12 :     4.771297708694658   Change is   -0.002421372160676
 Root     13 :     4.931144721269725   Change is   -0.027304001678556
 Root     14 :     5.077203215710186   Change is   -0.050305006294443
 Root     15 :     5.190318691010982   Change is   -0.014140088805440
 Root     16 :     5.197663367631852   Change is   -0.024658754244926
 Root     17 :     5.278279539643552   Change is   -0.238627869050768
 Root     18 :     5.335364991293346   Change is   -0.035346116973961
 Root     19 :     5.353256193856033   Change is   -0.038707543443739
 Root     20 :     5.380155736254430   Change is   -0.030038985436749
 Root     21 :     5.436120210463860   Change is   -0.352567450192736
 Root     22 :     5.516978807109395   Change is   -0.023890404741738
 Root     23 :     5.548406007444872   Change is   -0.019897825683789
 Root     24 :     5.568113073843849   Change is   -0.063957608756321
 Root     25 :     5.742816920962300   Change is   -0.009119130887387
 Root     26 :     5.761870288063875   Change is   -0.050837348044238
 Root     27 :     5.810618419930061   Change is   -0.025803098187425
 Root     28 :     5.830568155595525   Change is   -0.029712019627418
 Root     29 :     5.901629016216348   Change is   -0.027169060913841
 Root     30 :     6.008556138153841   Change is   -0.090006646091038
 Root     31 :     6.101871703162034   Change is   -0.256753264425911
 Root     32 :     6.158847522711088   Change is   -0.012568382612064
 Root     33 :     6.178522409214636   Change is   -0.017078258270924
 Root     34 :     6.206034697888191   Change is   -0.019191756101983
 Root     35 :     6.312461482312202   Change is   -0.002305552602239
[...]
     14   0.478080D-01  0.124819D+00 -0.687305D-01  0.875384D-02 -0.173178D+00
     15  -0.736903D-01 -0.213460D+00 -0.731403D-01 -0.164676D-01 -0.334845D+00
     16   0.123691D+00 -0.110622D-01 -0.132672D+00  0.998348D-01 -0.237899D-02
                41            42            43            44            45 
      1  -0.554966D+03 -0.554960D+03 -0.554957D+03 -0.554957D+03 -0.554956D+03
      2   0.309408D+00 -0.280638D+00  0.258577D-01  0.280149D+00  0.173252D+01
      3   0.341286D-02  0.503404D+00 -0.811771D-01 -0.117985D+00  0.113677D+00
      4   0.111390D-03 -0.119240D+00  0.673139D-01  0.152023D+00 -0.567665D-01
      5  -0.712849D-01  0.673287D-01 -0.618967D-02 -0.693079D-01 -0.428679D+00
      6  -0.114191D-02 -0.124090D+00  0.188702D-01  0.253786D-01 -0.283065D-01
      7  -0.164412D-02  0.265534D-01 -0.198184D-01 -0.345617D-01  0.134549D-01
      8  -0.866975D-01  0.185487D-01  0.270580D-01 -0.436467D-01 -0.867631D-01
      9   0.198294D-01  0.107046D+00  0.243636D+00  0.545688D+00 -0.104703D+00
     10  -0.263081D-01 -0.347300D+00  0.309678D+00  0.117412D+00 -0.105246D+00
     11   0.395390D+00  0.216653D+00 -0.334449D-01 -0.200859D+00 -0.942213D+00
     12   0.224320D+00 -0.981332D-01  0.219596D-01  0.189090D+00  0.418248D+00
     13  -0.770800D-01 -0.172905D-01 -0.124017D-01  0.399873D-01 -0.151503D+00
     14  -0.172232D-01 -0.553983D+00  0.212694D+00  0.357175D-01 -0.885048D-01
     15  -0.111886D-01 -0.142670D+00 -0.172741D+00 -0.503129D+00  0.107007D+00
     16   0.679009D-01 -0.164610D-01  0.150779D-02 -0.102718D-01 -0.302969D-01
                46            47            48            49            50 
      1  -0.554954D+03 -0.554954D+03 -0.554953D+03 -0.554952D+03 -0.554952D+03
      2   0.469278D+00  0.161409D+00 -0.292637D+00 -0.247737D+00 -0.247613D+00
      3   0.189611D-01  0.261131D+00  0.122013D+00 -0.355493D-01 -0.591245D-01
      4  -0.196259D-01 -0.172080D+00 -0.950437D-01  0.857908D-03  0.139417D+00
      5  -0.118128D+00 -0.415417D-01  0.749733D-01  0.621650D-01  0.587431D-01
      6  -0.599311D-02 -0.629177D-01 -0.292895D-01  0.587167D-02  0.119811D-01
      7   0.575102D-02  0.456419D-01  0.252045D-01  0.101958D-02 -0.387284D-01
      8   0.604699D+00 -0.227458D+00  0.401428D+00 -0.363364D-01 -0.423079D-01
      9  -0.305186D-01 -0.117428D+00 -0.425575D-01  0.474056D-01  0.880574D-01
     10  -0.230372D-01 -0.342377D+00 -0.289319D+00 -0.619364D-01  0.246205D-01
     11  -0.927714D+00  0.624008D+00 -0.642199D+00  0.309294D+00  0.146211D+00
     12  -0.159087D+00  0.186584D+00 -0.671673D-01  0.296427D-01  0.754366D-01
     13   0.188955D+00 -0.133829D+00  0.183126D+00 -0.567138D-01  0.287922D-01
     14  -0.441910D-01 -0.220661D+00 -0.155699D+00  0.218511D+00 -0.117503D-01
     15   0.417715D-01  0.108475D+00 -0.252509D-02 -0.194501D+00 -0.136737D+00
     16   0.206085D+00 -0.714923D-01  0.169752D+00 -0.358240D-01 -0.121915D-01
                51            52            53            54            55 
      1  -0.554949D+03 -0.554948D+03 -0.554947D+03 -0.554946D+03 -0.554946D+03
      2  -0.114237D+01  0.354917D-01 -0.685507D+00  0.553627D-02 -0.499743D-01
      3   0.131361D-01 -0.144078D+00 -0.721137D-01  0.688160D+00 -0.117528D+00
      4  -0.116509D-01  0.693320D-01 -0.141645D+00  0.318986D+00 -0.203883D-01
      5   0.290645D+00 -0.106304D-01  0.172325D+00 -0.267757D-02  0.156516D-01
      6  -0.338586D-02  0.366808D-01  0.199542D-01 -0.176664D+00  0.281762D-01
      7   0.343856D-02 -0.179867D-01  0.369721D-01 -0.831566D-01  0.446149D-02
      8   0.257672D+00  0.178483D-01 -0.294225D+00 -0.279675D-01 -0.138375D+00
      9  -0.321189D-01  0.379183D+00 -0.130823D+00 -0.219004D+00  0.991899D-01
     10   0.321472D-01 -0.516082D+00 -0.147881D+00  0.107880D+01 -0.107956D+00
     11  -0.185019D+00  0.149040D-02 -0.148396D+01 -0.182990D+00 -0.968761D+00
     12   0.322789D+00 -0.636086D-01 -0.233433D-01 -0.531577D-01 -0.149080D+00
     13  -0.270928D+00  0.752268D-01  0.170974D+00  0.896732D-01 -0.456161D-01
     14  -0.258420D-01 -0.416641D+00 -0.168903D+00  0.124793D+01 -0.188214D+00
     15   0.442144D-01 -0.369114D+00  0.167401D+00  0.146990D+00 -0.937902D-01
     16   0.429163D-01 -0.339261D-01 -0.273599D+00 -0.292638D-01 -0.571290D-01
                56            57            58            59            60 
      1  -0.554946D+03 -0.554945D+03 -0.554943D+03 -0.554942D+03 -0.554939D+03
      2  -0.245969D+00 -0.194283D+00  0.411816D-01  0.533198D-01 -0.212451D+00
      3   0.811370D-01  0.910490D-01  0.201982D+00 -0.455774D+00  0.108855D+00
      4   0.893931D-01 -0.960404D-02 -0.177007D-01  0.238738D+00  0.216648D-01
      5   0.663954D-01  0.508869D-01 -0.879854D-02 -0.171534D-01  0.541520D-01
      6  -0.204347D-01 -0.231624D-01 -0.521287D-01  0.118946D+00 -0.300704D-01
      7  -0.245107D-01  0.312978D-02  0.389553D-02 -0.692031D-01 -0.575719D-02
      8  -0.176647D+00  0.159408D+00 -0.506505D-01  0.342086D-01 -0.165631D+00
      9   0.114869D+00 -0.524498D-01 -0.374081D+00  0.156108D+00  0.153906D+00
     10   0.401936D-01  0.493211D-01  0.581619D-01 -0.149282D+00  0.371966D-01
     11  -0.162841D+01 -0.267572D+00  0.120429D+00  0.257633D+00  0.519108D+00
     12   0.197732D+00  0.189156D+00  0.852834D-03 -0.459061D-01  0.306004D-01
     13  -0.163134D+00 -0.254485D+00  0.122660D-01 -0.649458D-02  0.146322D+00
     14   0.847402D-01  0.609396D-01  0.566432D-02 -0.318430D+00 -0.718782D-01
     15  -0.224949D+00  0.674512D-01  0.428310D+00 -0.366844D+00 -0.844223D-01
     16  -0.675762D-01  0.788379D-01  0.255816D-01 -0.400186D-01 -0.985433D-01
                61            62            63            64            65 
      1  -0.554938D+03 -0.554938D+03 -0.554937D+03 -0.554936D+03 -0.554935D+03
      2  -0.120697D-01 -0.342559D+00  0.141007D+00  0.215885D+00  0.727575D+00
      3  -0.673299D-01  0.573143D+00  0.251657D-01  0.306968D+00  0.772355D-01
      4   0.420609D+00 -0.564078D-01 -0.494594D-02  0.548750D-02 -0.191032D-01
      5   0.372207D-02  0.885905D-01 -0.377083D-01 -0.559671D-01 -0.196038D+00
      6   0.191678D-01 -0.156925D+00 -0.652381D-02 -0.867133D-01 -0.200848D-01
      7  -0.115037D+00  0.137850D-01  0.223253D-02 -0.211612D-02  0.561319D-02
      8  -0.301415D-01 -0.112444D+00 -0.132116D+00  0.133058D-01  0.210493D+00
      9  -0.777034D+00 -0.914251D-01 -0.570503D-01  0.400913D-01  0.773547D-02
     10  -0.170080D+00  0.129011D+00 -0.432915D-01  0.133029D+00  0.818305D-01
     11  -0.383799D-01 -0.172551D-01  0.281845D+00  0.315408D+00  0.103331D+01
     12   0.325552D-01  0.520326D-02 -0.548217D-01  0.659288D-02 -0.163371D+00
     13  -0.287567D-02  0.692171D-01 -0.501106D-01 -0.205563D-01 -0.318915D-01
     14  -0.206258D+00  0.146504D-01  0.177876D-01  0.541871D-01  0.111148D+00
     15   0.798852D+00  0.139700D+00  0.882053D-01 -0.115679D-01  0.870371D-01
     16  -0.375178D-02 -0.380509D-01 -0.195200D-01  0.584630D-01 -0.647121D-01
                66            67            68            69            70 
      1  -0.554935D+03 -0.554933D+03 -0.554932D+03 -0.554932D+03 -0.554931D+03
      2   0.150467D-01 -0.709949D+00  0.277966D+00 -0.102135D+00  0.188703D+00
      3   0.515642D-01 -0.922414D-01  0.684738D-01 -0.246796D+00 -0.219317D+00
      4  -0.663813D-01  0.196233D-02 -0.782408D-01 -0.273976D+00 -0.170306D+00
      5  -0.288645D-02  0.192838D+00 -0.754144D-01  0.271873D-01 -0.523796D-01
      6  -0.139025D-01  0.245811D-01 -0.214049D-01  0.675220D-01  0.610167D-01
      7   0.183784D-01 -0.110635D-02  0.213250D-01  0.752478D-01  0.470312D-01
      8  -0.266712D-01 -0.440054D-01  0.369467D+00 -0.305144D+00  0.378369D+00
      9  -0.301246D+00  0.683883D-01  0.243070D+00  0.236230D+00 -0.943352D-01
     10   0.543265D-01 -0.187091D+00 -0.130150D+00 -0.363926D+00 -0.173596D+00
     11   0.252754D-01  0.757382D+00 -0.190601D+00  0.168052D+00  0.174095D-01
     12  -0.373955D-02  0.277552D+00  0.485147D-01 -0.734052D-01  0.963885D-02
     13   0.845700D-02 -0.255767D-02 -0.220340D+00  0.174962D+00 -0.186374D+00
     14   0.136471D+00 -0.212799D+00 -0.161131D+00 -0.232268D+00 -0.815325D-01
     15   0.124953D+00 -0.162907D+00 -0.278130D+00 -0.266757D+00  0.829692D-01
     16  -0.331245D-01  0.363016D-01  0.274880D-01 -0.531260D-01  0.481939D-01
                71            72            73            74            75 
      1  -0.554928D+03 -0.554926D+03 -0.554925D+03 -0.554924D+03 -0.554923D+03
      2  -0.567712D-01  0.533723D+00 -0.170216D+00 -0.216869D-02 -0.632456D-01
      3   0.654418D-01 -0.754192D-01 -0.211199D+00  0.767245D-01  0.335304D+00
      4  -0.183769D-01  0.478316D-02 -0.180138D+00 -0.177132D+00  0.391044D+00
      5   0.159857D-01 -0.147778D+00  0.465175D-01  0.242598D-03  0.167424D-01
      6  -0.200316D-01  0.215206D-01  0.594711D-01 -0.195318D-01 -0.915541D-01
      7   0.403785D-02 -0.309071D-02  0.488403D-01  0.501248D-01 -0.110175D+00
      8  -0.241245D-02 -0.522678D-01 -0.848173D-02 -0.202524D+00 -0.596818D-01
      9   0.268267D-02 -0.856608D-01 -0.549820D-01 -0.398049D-01 -0.292502D+00
     10   0.828674D-02 -0.371508D+00 -0.761102D+00 -0.273854D+00  0.750503D+00
     11  -0.782331D-01  0.309121D+01 -0.258055D+01  0.557403D+00 -0.908344D+00
     12   0.257909D-01 -0.235358D+00  0.287265D-01 -0.115344D+00  0.202163D-02
     13  -0.151026D-01  0.110408D+00 -0.418467D-01  0.161969D+00  0.727054D-01
     14  -0.114538D+00 -0.425682D+00 -0.857790D+00 -0.256588D+00  0.819471D+00
     15   0.782120D-01 -0.890202D-01 -0.301706D+00 -0.847921D-01  0.345799D+00
     16   0.175930D-01 -0.664961D-01  0.185809D-01 -0.720113D-01  0.696258D-02
                76            77            78            79            80 
      1  -0.554919D+03 -0.554918D+03 -0.554916D+03 -0.554916D+03 -0.554915D+03
      2   0.226036D-01 -0.641485D-01  0.305506D-01 -0.112755D+00 -0.265182D-01
      3  -0.788802D-01 -0.580530D-01  0.105686D+00  0.516765D-02  0.339699D-01
      4   0.111260D-01 -0.179613D-01  0.394325D-01  0.377110D-01  0.725752D-02
      5  -0.626733D-02  0.184517D-01 -0.869938D-02  0.320037D-01  0.566746D-02
      6   0.223828D-01  0.175667D-01 -0.288850D-01 -0.789068D-03 -0.110142D-01
      7  -0.319573D-02  0.451988D-02 -0.122941D-01 -0.106998D-01 -0.123981D-02
      8   0.197090D+00 -0.259178D+00  0.966030D-01 -0.418651D+00 -0.401920D+00
      9   0.678573D-02 -0.562293D-01 -0.437844D+00 -0.807300D-01  0.100737D+00
     10  -0.202736D-01 -0.450151D-01 -0.914702D-01  0.707822D-01 -0.667060D-01
     11   0.384583D+00 -0.426428D+00 -0.515741D-01 -0.129339D+00 -0.166935D+00
     12  -0.931562D-01  0.967090D-01 -0.989569D-01  0.349440D+00 -0.323113D+00
     13   0.173559D+00  0.121306D+00  0.439128D-01 -0.329319D+00 -0.133962D+00
     14  -0.641829D-01 -0.229035D-01  0.597556D-02  0.576453D-01 -0.114837D+00
     15   0.405437D-01  0.149576D+00  0.261903D+00  0.296598D-01  0.110299D-01
     16   0.104618D-01 -0.919861D-01  0.323877D-01 -0.117301D+00 -0.120334D+00
                81            82            83            84            85 
      1  -0.554914D+03 -0.554914D+03 -0.554913D+03 -0.554912D+03 -0.554911D+03
      2  -0.713288D-01  0.396017D-01 -0.844832D-01  0.161273D+00  0.269780D+00
      3  -0.141307D+00 -0.257764D+00  0.306618D-01 -0.125001D+00  0.112860D+00
      4   0.839463D-01  0.690916D-01 -0.131726D-01 -0.139703D+00  0.449638D-01
      5   0.204660D-01 -0.115835D-01  0.235546D-01 -0.456739D-01 -0.776053D-01
      6   0.400873D-01  0.755596D-01 -0.694372D-02  0.378649D-01 -0.341426D-01
      7  -0.206708D-01 -0.204440D-01  0.242392D-02  0.405418D-01 -0.130702D-01
      8   0.183964D+00 -0.102341D+00  0.321749D+00 -0.160205D+00 -0.103185D+00
      9   0.359582D+00  0.218865D+00  0.169022D-01  0.266661D+00  0.593270D-01
     10   0.284542D+00  0.713077D+00 -0.210773D+00 -0.117160D+00  0.775286D-02
     11   0.499849D+00 -0.295450D+00  0.753891D+00 -0.170477D+00 -0.239150D+00
     12  -0.604654D-01 -0.127228D+00 -0.123506D+00 -0.212683D+00 -0.370926D+00
     13  -0.100121D-01 -0.309181D-01 -0.197820D+00 -0.190208D-01 -0.149588D+00
     14   0.266898D-01  0.429965D+00 -0.709031D-01 -0.173748D+00  0.145577D+00
     15  -0.216408D+00 -0.130056D+00 -0.898393D-02 -0.281036D-01  0.113374D+00
     16   0.101856D+00 -0.331268D-01  0.142159D+00  0.227314D-01  0.916044D-01
                86            87            88            89            90 
      1  -0.554909D+03 -0.554908D+03 -0.554908D+03 -0.554906D+03 -0.554906D+03
      2   0.162546D+00  0.926000D-01 -0.137940D+00  0.472255D-01  0.277463D-01
      3  -0.818816D-02 -0.332787D-01 -0.158955D-01 -0.439234D-01  0.593270D-02
      4   0.107177D-01  0.913545D-02  0.107152D+00 -0.823142D-01  0.243715D+00
      5  -0.480119D-01 -0.260292D-01  0.386235D-01 -0.161426D-01 -0.781031D-02
      6   0.323039D-02  0.102716D-01  0.577301D-02  0.120007D-01 -0.687876D-05
      7  -0.335226D-02 -0.396703D-02 -0.309723D-01  0.216332D-01 -0.719946D-01
      8  -0.445096D-01 -0.244994D+00  0.295286D+00  0.916370D-01 -0.235949D+00
      9  -0.298314D+00  0.398316D-01  0.596899D-01 -0.220404D+00 -0.258478D+00
     10   0.208147D-01 -0.190962D-01  0.199964D+00 -0.183338D+00  0.973746D-01
     11   0.294141D-03  0.457354D+00  0.431202D+00 -0.210052D+00  0.279209D-01
     12  -0.304521D+00  0.703602D-01 -0.673719D-02 -0.376652D-01 -0.639301D-01
     13  -0.199885D+00 -0.107689D+00 -0.679026D+00 -0.269887D+00  0.262215D+00
     14  -0.710697D-01 -0.474527D-01  0.164635D+00 -0.196948D+00  0.187036D+00
     15  -0.118833D+00  0.285184D-01  0.128319D-01  0.829904D-01  0.100856D+00
     16   0.831666D-01 -0.105778D-01  0.126342D+00  0.244888D-01 -0.381239D-01
                91            92            93            94            95 
      1  -0.554906D+03 -0.554905D+03 -0.554904D+03 -0.554903D+03 -0.554903D+03
      2   0.108993D+00  0.168849D-01  0.174475D-02  0.108432D+00 -0.335109D-01
      3  -0.138250D+00  0.970690D-01  0.272804D-01 -0.160803D+00 -0.888965D-01
      4   0.191118D+00 -0.173400D+00  0.232411D-01  0.343423D-01  0.396209D-01
      5  -0.312927D-01 -0.392905D-02 -0.655667D-03 -0.311578D-01  0.918254D-02
      6   0.403070D-01 -0.284931D-01 -0.837260D-02  0.478752D-01  0.265900D-01
      7  -0.563748D-01  0.524922D-01 -0.684607D-02 -0.103256D-01 -0.122332D-01
      8  -0.923558D-01 -0.122371D+00  0.301585D+00  0.137915D+00 -0.116168D+00
      9  -0.203086D+00  0.419577D+00 -0.106196D+00  0.180232D+00 -0.514140D-01
     10   0.674699D+00 -0.499006D+00  0.186600D+00  0.664381D-01  0.961103D-01
     11  -0.582820D+00 -0.217195D+00  0.642318D+00 -0.551451D-01  0.204928D+00
     12   0.974680D-01  0.107755D+00 -0.164642D-02  0.507989D-02 -0.623625D-01
     13   0.195826D+00  0.152576D+00 -0.151954D+00 -0.468861D-01 -0.428833D-01
     14   0.378133D+00 -0.345702D+00  0.188976D+00 -0.160496D+00 -0.398768D-01
     15   0.246149D+00 -0.346456D+00  0.709056D-01 -0.705939D-01  0.624969D-01
     16  -0.506494D-01 -0.643021D-01  0.875073D-01 -0.274988D-01  0.121012D+00
                96            97            98            99           100 
      1  -0.554902D+03 -0.554901D+03 -0.554900D+03 -0.554898D+03 -0.554898D+03
      2   0.454068D-01  0.866325D-01  0.288081D+00  0.437962D-02 -0.507826D-01
      3  -0.564377D-01 -0.541140D+00  0.272264D+00  0.141381D+00 -0.142799D+00
      4   0.837357D-01  0.247295D+00 -0.155790D+00 -0.782447D-01 -0.207038D+00
      5  -0.133559D-01 -0.250368D-01 -0.841150D-01 -0.779773D-03  0.135058D-01
      6   0.192048D-01  0.162088D+00 -0.823031D-01 -0.405735D-01  0.453902D-01
      7  -0.290983D-01 -0.777830D-01  0.486656D-01  0.251013D-01  0.660729D-01
      8   0.557485D-01  0.558457D-01  0.162716D+00  0.336661D-01  0.604259D-02
      9  -0.490185D+00  0.954033D+00 -0.431486D+00 -0.242916D+00 -0.403636D+00
     10  -0.438932D+00  0.248171D+00 -0.435424D+00  0.368215D+00  0.242756D+00
     11  -0.217705D+00 -0.510822D+00 -0.129489D+01 -0.638230D-01 -0.235502D+00
     12  -0.568973D-03  0.460850D-01  0.131982D+00 -0.310125D-01  0.151493D-01
     13  -0.545172D-02 -0.145364D-01 -0.112550D+00 -0.313412D-01  0.283824D-01
     14  -0.411019D+00 -0.302949D+00 -0.175539D-01  0.320505D+00  0.184254D+00
     15   0.450337D+00 -0.581510D+00  0.261936D+00  0.227810D+00  0.241959D+00
     16  -0.956143D-02  0.150810D-02  0.324418D-01  0.155189D-01  0.399509D-01
 Unable to Open any file for archive entry.
 1\1\GINC-R11R29N1\SP\RCAM-B3LYP TD-FC\6-311++G(d,p)\C41H34N1O1\ROOT\25
 -Nov-2018\0\\#p Td(nstates=100) CAM-B3LYP/6-311++G(d,p) nosym geom=noc
 rowd\\MH29\\0,1\C,0,1.04452286,-1.07405928,0.57011939\C,0,2.41772148,-
 1.11121868,0.59153661\C,0,3.19984903,-0.03497974,-0.02434673\C,0,2.431
 80883,1.09493494,-0.55424695\C,0,1.05873841,1.07042008,-0.54382577\C,0
 ,0.35790924,-0.00113926,0.00498687\N,0,-1.07795865,-0.00611489,-0.0237
 5087\C,0,-1.77655547,1.02030951,0.55638154\C,0,-1.74847469,-1.03886884
 ,-0.62394042\O,0,4.43878002,-0.06894289,-0.07721476\C,0,-3.15564821,1.
 02041355,0.52147716\C,0,-3.12867465,-1.06662361,-0.60465304\H,0,0.4835
 7987,-1.90342014,0.98636525\H,0,0.50955419,1.89146708,-0.99073038\H,0,
 -3.62025185,-1.8814006,-1.11687159\H,0,-3.66927956,1.82962616,1.020787
 55\C,0,-3.8710925,-0.03246524,-0.04296879\C,0,3.12280683,2.28399082,-1
 .0999102\C,0,3.09756968,-2.25572535,1.23880899\C,0,-5.34627812,-0.0490
 5352,-0.04835992\C,0,-1.00895638,-2.09522271,-1.35482547\C,0,-1.065894
 61,2.1083716,1.27113881\C,0,2.61016676,3.56223268,-0.85390586\C,0,4.34
 2392,4.57188687,-2.18160658\C,0,4.27851145,2.17901028,-1.87962047\C,0,
 4.87375672,3.31003663,-2.41790324\C,0,3.20791133,4.6932218,-1.39117811
 \H,0,4.81606086,5.4528179,-2.59901835\H,0,2.79406047,5.67278212,-1.179
 10424\H,0,1.74545535,3.67339422,-0.20885688\H,0,4.71163734,1.20326197,
 -2.04319602\H,0,5.76670272,3.20469459,-3.02355089\C,0,4.29368598,-4.49
 992523,2.43681152\C,0,2.58256386,-2.81140403,2.41396623\C,0,4.24449384
 ,-2.83720263,0.68902053\C,0,3.16748684,-3.92186937,3.00550522\C,0,4.82
 779166,-3.94832271,1.27897986\H,0,4.68016322,-2.39790371,-0.19599896\H
 ,0,5.7140389,-4.38421426,0.83187726\H,0,4.75838169,-5.36362926,2.89794
 736\H,0,2.75029593,-4.32681322,3.92066516\H,0,1.72194161,-2.35128085,2
 .88668126\C,0,-6.04304125,-1.24802088,0.11216076\C,0,-7.42885523,-1.26
 315043,0.11071643\C,0,-7.45565489,1.11580209,-0.22161425\C,0,-8.138825
 1,-0.0818527,-0.05781641\C,0,-6.06987705,1.13323817,-0.21361011\H,0,-5
 .54618541,2.06959614,-0.36420467\H,0,-9.22181348,-0.09456299,-0.061479
 4\H,0,-7.95610855,-2.19925596,0.24766085\H,0,-8.00379367,2.03927083,-0
 .36226537\H,0,-5.49836451,-2.17178089,0.26614068\C,0,-0.09860858,-1.77
 76203,-2.36314829\C,0,-1.27676943,-3.43028013,-1.0671986\C,0,-0.629927
 97,-4.44034174,-1.76602009\C,0,0.27523545,-4.12039603,-2.7656955\C,0,0
 .53331465,-2.787548,-3.06605222\H,0,-1.97107491,-3.68143964,-0.2736131
 3\H,0,-0.82687351,-5.47620092,-1.51909467\H,0,0.78783113,-4.90667942,-
 3.30600892\H,0,1.24326752,-2.53241429,-3.8426991\H,0,0.13287865,-0.743
 2246,-2.58001352\C,0,-0.1654282,1.83923289,2.30210949\C,0,-1.34371937,
 3.42884465,0.93045059\C,0,-0.71648055,4.47182478,1.59924935\C,0,0.4488
 269,2.88135326,2.9731237\C,0,0.18100826,4.19948015,2.61971279\H,0,-2.0
 3001259,3.64227359,0.11910738\H,0,-0.92316682,5.49552626,1.31237647\H,
 0,0.68042508,5.01053966,3.13516665\H,0,1.15445784,2.66319379,3.7647253
 3\H,0,0.07580407,0.81623786,2.55832625\H,0,2.932012,1.955675,-0.949244
 \H,0,2.909853,-1.93971,1.060087\H,0,-4.938958,-0.044473,-0.046871\H,0,
 -1.213147,-1.803548,-1.153017\H,0,-1.262118,1.807941,1.073783\\Version
 =ES64L-GDVRevI.09\HF=-555.2067568\RMSD=4.645e-09\PG=C01 [X(C41H34N1O1)
 ]\\@
 The archive entry for this job was punched.


 TRUST EVERYONE, BUT CUT THE CARDS.
 Job cpu time:       0 days  9 hours 30 minutes 17.5 seconds.
 Elapsed time:       0 days  0 hours 35 minutes 38.5 seconds.
 File lengths (MBytes):  RWF=   4614 Int=      0 D2E=      0 Chk=    361 Scr=      1
 Normal termination of Gaussian DV at Sun Nov 25 20:20:11 2018.
