extn,3 
sigma,0.4
sdtrl,0.1
sdtmh,NA
sdtml,0.1

sdtrlleft,NA,0.1
sdtrlright,NA,0.08
sdtmhleft,#
sdtmhright,#
sdtmlleft,NA,0.1
sdtmlright,NA,0.1
 
 Entering Gaussian System, Link 0=gdv
 Input=RL0.com
 Output=RL0.log
 Initial command:
 /panfs/pfs.local/work/caricato/m330c584/PANFS-WORK-MCARICATO/gdv_i11/gdv/l1.exe "/tmp/zkh_oniom_MULTI_B30/Gau-33389.inp" -scrdir="/tmp/zkh_oniom_MULTI_B30/"
 Entering Link 1 = /panfs/pfs.local/work/caricato/m330c584/PANFS-WORK-MCARICATO/gdv_i11/gdv/l1.exe PID=     33390.
  
 Copyright (c) 1988-2017, Gaussian, Inc.  All Rights Reserved.
  
 This is the private, development version of
 the Gaussian(R) DV system of programs. It is based on
 the Gaussian(R) 16 system (copyright 2016, Gaussian, Inc.),
 the Gaussian(R) 09 system (copyright 2009, Gaussian, Inc.),
 the Gaussian(R) 03 system (copyright 2003, Gaussian, Inc.),
 the Gaussian(R) 98 system (copyright 1998, Gaussian, Inc.),
 the Gaussian(R) 94 system (copyright 1995, Gaussian, Inc.),
 the Gaussian 92(TM) system (copyright 1992, Gaussian, Inc.),
 the Gaussian 90(TM) system (copyright 1990, Gaussian, Inc.),
 the Gaussian 88(TM) system (copyright 1988, Gaussian, Inc.),
 the Gaussian 86(TM) system (copyright 1986, Carnegie Mellon
 University), and the Gaussian 82(TM) system (copyright 1983,
 Carnegie Mellon University). Gaussian is a federally registered
 trademark of Gaussian, Inc.
  
 This software contains proprietary and confidential information,
 including trade secrets, belonging to Gaussian, Inc.
  
 This software is provided under written license and may be
 used, copied, transmitted, or stored only in accord with that
 written license.
  
 The following legend is applicable only to US Government
 contracts under FAR:
  
                    RESTRICTED RIGHTS LEGEND
  
 Use, reproduction and disclosure by the US Government is
 subject to restrictions as set forth in subparagraphs (a)
 and (c) of the Commercial Computer Software - Restricted
 Rights clause in FAR 52.227-19.
  
 Gaussian, Inc.
 340 Quinnipiac St., Bldg. 40, Wallingford CT 06492
  
  
 ---------------------------------------------------------------
 Warning -- This program may not be used in any manner that
 competes with the business of Gaussian, Inc. or will provide
 assistance to any competitor of Gaussian, Inc.  The licensee
 of this program is prohibited from giving any competitor of
 Gaussian, Inc. access to this program.  By using this program,
 the user acknowledges that Gaussian, Inc. is engaged in the
 business of creating and licensing software in the field of
 computational chemistry and represents and warrants to the
 licensee that it is not a competitor of Gaussian, Inc. and that
 it will not use this program in any manner prohibited above.
 ---------------------------------------------------------------
  

 Cite this work as:
 Gaussian Development Version, Revision I.11,
 M. J. Frisch, G. W. Trucks, H. B. Schlegel, G. E. Scuseria, 
 M. A. Robb, J. R. Cheeseman, G. Scalmani, V. Barone, 
 G. A. Petersson, H. Nakatsuji, X. Li, M. Caricato, A. V. Marenich, 
 J. Bloino, B. G. Janesko, R. Gomperts, B. Mennucci, H. P. Hratchian, 
 J. V. Ortiz, A. F. Izmaylov, J. L. Sonnenberg, D. Williams-Young, 
 F. Ding, F. Lipparini, F. Egidi, J. Goings, B. Peng, A. Petrone, 
 T. Henderson, D. Ranasinghe, V. G. Zakrzewski, J. Gao, N. Rega, 
 G. Zheng, W. Liang, M. Hada, M. Ehara, K. Toyota, R. Fukuda, 
 J. Hasegawa, M. Ishida, T. Nakajima, Y. Honda, O. Kitao, H. Nakai, 
 T. Vreven, K. Throssell, J. A. Montgomery, Jr., J. E. Peralta, 
 F. Ogliaro, M. J. Bearpark, J. J. Heyd, E. N. Brothers, K. N. Kudin, 
 V. N. Staroverov, T. A. Keith, R. Kobayashi, J. Normand, 
 K. Raghavachari, A. P. Rendell, J. C. Burant, S. S. Iyengar, 
 J. Tomasi, M. Cossi, J. M. Millam, M. Klene, C. Adamo, R. Cammi, 
 J. W. Ochterski, R. L. Martin, K. Morokuma, O. Farkas, 
 J. B. Foresman, and D. J. Fox, Gaussian, Inc., Wallingford CT, 2016.
 
 ******************************************
 Gaussian DV:  ES64L-GDVRevI.11  2-Jul-2017
                 8-Nov-2018 
 ******************************************
  %mem=20Gb
  %nprocshared=20
 Will use up to   20 processors via shared memory.
  %chk=1.chk
 -----------------------------------------
 #p TD(nstates=100) B3LYP/6-31+G(d) nosymm
 -----------------------------------------
 1/38=1,172=1/1;
 2/12=2,15=1,17=6,18=5,40=1/2;
 3/5=1,6=6,7=11,11=9,25=1,30=1,74=-5/1,2,3,8;
 4//1;
 5/5=2,38=5/2;
 8/6=1,10=2,108=100/1;
 9/41=100,42=1,70=2/14;
 6/7=2,8=2,9=2,10=2/1;
 99/5=1,9=1/99;
 Leave Link    1 at Thu Nov  8 12:15:55 2018, MaxMem=  2684354560 cpu:               2.7 elap:               0.2
 (Enter /panfs/pfs.local/work/caricato/m330c584/PANFS-WORK-MCARICATO/gdv_i11/gdv/l101.exe)
 ---
 RL0
 ---
 Symbolic Z-matrix:
 Charge =  0 Multiplicity = 1
 C                     1.04452  -1.07406   0.57012 
 C                     2.41772  -1.11122   0.59154 
 C                     3.19985  -0.03498  -0.02435 
 C                     2.43181   1.09493  -0.55425 
 C                     1.05874   1.07042  -0.54383 
 C                     0.35791  -0.00114   0.00499 
 N                    -1.07796  -0.00611  -0.02375 
 C                    -1.77656   1.02031   0.55638 
 C                    -1.74847  -1.03887  -0.62394 
 O                     4.43878  -0.06894  -0.07721 
 C                    -3.15565   1.02041   0.52148 
 C                    -3.12867  -1.06662  -0.60465 
 H                     0.48358  -1.90342   0.98637 
 H                     0.50955   1.89147  -0.99073 
 H                    -3.62025  -1.8814   -1.11687 
 H                    -3.66928   1.82963   1.02079 
 C                    -3.87109  -0.03247  -0.04297 
 C                     2.61017   3.56223  -0.85391 
 C                     4.34239   4.57189  -2.18161 
 C                     4.27851   2.17901  -1.87962 
 C                     4.87376   3.31004  -2.4179 
 C                     3.20791   4.69322  -1.39118 
 H                     4.81606   5.45282  -2.59902 
 H                     2.79406   5.67278  -1.1791 
 H                     1.74546   3.67339  -0.20886 
 H                     4.71164   1.20326  -2.0432 
 H                     5.7667    3.20469  -3.02355 
 C                     4.29369  -4.49993   2.43681 
 C                     2.58256  -2.8114    2.41397 
 C                     4.24449  -2.8372    0.68902 
 C                     3.16749  -3.92187   3.00551 
 C                     4.82779  -3.94832   1.27898 
 H                     4.68016  -2.3979   -0.196 
 H                     5.71404  -4.38421   0.83188 
 H                     4.75838  -5.36363   2.89795 
 H                     2.7503   -4.32681   3.92067 
 H                     1.72194  -2.35128   2.88668 
 C                    -6.04304  -1.24802   0.11216 
 C                    -7.42886  -1.26315   0.11072 
 C                    -7.45565   1.1158   -0.22161 
 C                    -8.13883  -0.08185  -0.05782 
 C                    -6.06988   1.13324  -0.21361 
 H                    -5.54619   2.0696   -0.3642 
 H                    -9.22181  -0.09456  -0.06148 
 H                    -7.95611  -2.19926   0.24766 
 H                    -8.00379   2.03927  -0.36227 
 H                    -5.49836  -2.17178   0.26614 
 C                    -0.09861  -1.77762  -2.36315 
 C                    -1.27677  -3.43028  -1.0672 
 C                    -0.62993  -4.44034  -1.76602 
 C                     0.27524  -4.1204   -2.7657 
 C                     0.53331  -2.78755  -3.06605 
 H                    -1.97107  -3.68144  -0.27361 
 H                    -0.82687  -5.4762   -1.51909 
 H                     0.78783  -4.90668  -3.30601 
 H                     1.24327  -2.53241  -3.8427 
 H                     0.13288  -0.74322  -2.58001 
 C                    -0.16543   1.83923   2.30211 
 C                    -1.34372   3.42884   0.93045 
 C                    -0.71648   4.47182   1.59925 
 C                     0.44883   2.88135   2.97312 
 C                     0.18101   4.19948   2.61971 
 H                    -2.03001   3.64227   0.11911 
 H                    -0.92317   5.49553   1.31238 
 H                     0.68043   5.01054   3.13517 
 H                     1.15446   2.66319   3.76473 
 H                     0.0758    0.81624   2.55833 
 C                     3.12281   2.28399  -1.09991 
 C                     3.09757  -2.25573   1.23881 
 C                    -5.34628  -0.04905  -0.04836 
 C                    -1.00896  -2.09522  -1.35483 
 C                    -1.06589   2.10837   1.27114 
 
 ITRead=  0  0  0  0  0  0  0  0  0  0  0  0  0  0  0  0  0  0  0  0
 ITRead=  0  0  0  0  0  0  0  0  0  0  0  0  0  0  0  0  0  0  0  0
 ITRead=  0  0  0  0  0  0  0  0  0  0  0  0  0  0  0  0  0  0  0  0
 ITRead=  0  0  0  0  0  0  0  0  0  0  0  0
 MicOpt= -1 -1 -1 -1 -1 -1 -1 -1 -1 -1 -1 -1 -1 -1 -1 -1 -1 -1 -1 -1
 MicOpt= -1 -1 -1 -1 -1 -1 -1 -1 -1 -1 -1 -1 -1 -1 -1 -1 -1 -1 -1 -1
 MicOpt= -1 -1 -1 -1 -1 -1 -1 -1 -1 -1 -1 -1 -1 -1 -1 -1 -1 -1 -1 -1
 MicOpt= -1 -1 -1 -1 -1 -1 -1 -1 -1 -1 -1 -1
 NAtoms=     72 NQM=       72 NQMF=       0 NMMI=      0 NMMIF=      0
                NMic=       0 NMicF=      0.
                    Isotopes and Nuclear Properties:
 (Nuclear quadrupole moments (NQMom) in fm**2, nuclear magnetic moments (NMagM)
  in nuclear magnetons)

  Atom         1           2           3           4           5           6           7           8           9          10
 IAtWgt=          12          12          12          12          12          12          14          12          12          16
 AtmWgt=  12.0000000  12.0000000  12.0000000  12.0000000  12.0000000  12.0000000  14.0030740  12.0000000  12.0000000  15.9949146
 NucSpn=           0           0           0           0           0           0           2           0           0           0
 AtZEff=   0.0000000   0.0000000   0.0000000   0.0000000   0.0000000   0.0000000   0.0000000   0.0000000   0.0000000   0.0000000
 NQMom=    0.0000000   0.0000000   0.0000000   0.0000000   0.0000000   0.0000000   2.0440000   0.0000000   0.0000000   0.0000000
 NMagM=    0.0000000   0.0000000   0.0000000   0.0000000   0.0000000   0.0000000   0.4037610   0.0000000   0.0000000   0.0000000
 AtZNuc=   6.0000000   6.0000000   6.0000000   6.0000000   6.0000000   6.0000000   7.0000000   6.0000000   6.0000000   8.0000000

  Atom        11          12          13          14          15          16          17          18          19          20
 IAtWgt=          12          12           1           1           1           1          12          12          12          12
 AtmWgt=  12.0000000  12.0000000   1.0078250   1.0078250   1.0078250   1.0078250  12.0000000  12.0000000  12.0000000  12.0000000
 NucSpn=           0           0           1           1           1           1           0           0           0           0
 AtZEff=   0.0000000   0.0000000   0.0000000   0.0000000   0.0000000   0.0000000   0.0000000   0.0000000   0.0000000   0.0000000
 NQMom=    0.0000000   0.0000000   0.0000000   0.0000000   0.0000000   0.0000000   0.0000000   0.0000000   0.0000000   0.0000000
 NMagM=    0.0000000   0.0000000   2.7928460   2.7928460   2.7928460   2.7928460   0.0000000   0.0000000   0.0000000   0.0000000
 AtZNuc=   6.0000000   6.0000000   1.0000000   1.0000000   1.0000000   1.0000000   6.0000000   6.0000000   6.0000000   6.0000000

  Atom        21          22          23          24          25          26          27          28          29          30
 IAtWgt=          12          12           1           1           1           1           1          12          12          12
 AtmWgt=  12.0000000  12.0000000   1.0078250   1.0078250   1.0078250   1.0078250   1.0078250  12.0000000  12.0000000  12.0000000
 NucSpn=           0           0           1           1           1           1           1           0           0           0
 AtZEff=   0.0000000   0.0000000   0.0000000   0.0000000   0.0000000   0.0000000   0.0000000   0.0000000   0.0000000   0.0000000
 NQMom=    0.0000000   0.0000000   0.0000000   0.0000000   0.0000000   0.0000000   0.0000000   0.0000000   0.0000000   0.0000000
 NMagM=    0.0000000   0.0000000   2.7928460   2.7928460   2.7928460   2.7928460   2.7928460   0.0000000   0.0000000   0.0000000
 AtZNuc=   6.0000000   6.0000000   1.0000000   1.0000000   1.0000000   1.0000000   1.0000000   6.0000000   6.0000000   6.0000000

  Atom        31          32          33          34          35          36          37          38          39          40
 IAtWgt=          12          12           1           1           1           1           1          12          12          12
 AtmWgt=  12.0000000  12.0000000   1.0078250   1.0078250   1.0078250   1.0078250   1.0078250  12.0000000  12.0000000  12.0000000
 NucSpn=           0           0           1           1           1           1           1           0           0           0
 AtZEff=   0.0000000   0.0000000   0.0000000   0.0000000   0.0000000   0.0000000   0.0000000   0.0000000   0.0000000   0.0000000
 NQMom=    0.0000000   0.0000000   0.0000000   0.0000000   0.0000000   0.0000000   0.0000000   0.0000000   0.0000000   0.0000000
 NMagM=    0.0000000   0.0000000   2.7928460   2.7928460   2.7928460   2.7928460   2.7928460   0.0000000   0.0000000   0.0000000
 AtZNuc=   6.0000000   6.0000000   1.0000000   1.0000000   1.0000000   1.0000000   1.0000000   6.0000000   6.0000000   6.0000000

  Atom        41          42          43          44          45          46          47          48          49          50
 IAtWgt=          12          12           1           1           1           1           1          12          12          12
 AtmWgt=  12.0000000  12.0000000   1.0078250   1.0078250   1.0078250   1.0078250   1.0078250  12.0000000  12.0000000  12.0000000
 NucSpn=           0           0           1           1           1           1           1           0           0           0
 AtZEff=   0.0000000   0.0000000   0.0000000   0.0000000   0.0000000   0.0000000   0.0000000   0.0000000   0.0000000   0.0000000
 NQMom=    0.0000000   0.0000000   0.0000000   0.0000000   0.0000000   0.0000000   0.0000000   0.0000000   0.0000000   0.0000000
 NMagM=    0.0000000   0.0000000   2.7928460   2.7928460   2.7928460   2.7928460   2.7928460   0.0000000   0.0000000   0.0000000
 AtZNuc=   6.0000000   6.0000000   1.0000000   1.0000000   1.0000000   1.0000000   1.0000000   6.0000000   6.0000000   6.0000000

  Atom        51          52          53          54          55          56          57          58          59          60
 IAtWgt=          12          12           1           1           1           1           1          12          12          12
 AtmWgt=  12.0000000  12.0000000   1.0078250   1.0078250   1.0078250   1.0078250   1.0078250  12.0000000  12.0000000  12.0000000
 NucSpn=           0           0           1           1           1           1           1           0           0           0
 AtZEff=   0.0000000   0.0000000   0.0000000   0.0000000   0.0000000   0.0000000   0.0000000   0.0000000   0.0000000   0.0000000
 NQMom=    0.0000000   0.0000000   0.0000000   0.0000000   0.0000000   0.0000000   0.0000000   0.0000000   0.0000000   0.0000000
 NMagM=    0.0000000   0.0000000   2.7928460   2.7928460   2.7928460   2.7928460   2.7928460   0.0000000   0.0000000   0.0000000
 AtZNuc=   6.0000000   6.0000000   1.0000000   1.0000000   1.0000000   1.0000000   1.0000000   6.0000000   6.0000000   6.0000000

  Atom        61          62          63          64          65          66          67          68          69          70
 IAtWgt=          12          12           1           1           1           1           1          12          12          12
 AtmWgt=  12.0000000  12.0000000   1.0078250   1.0078250   1.0078250   1.0078250   1.0078250  12.0000000  12.0000000  12.0000000
 NucSpn=           0           0           1           1           1           1           1           0           0           0
 AtZEff=   0.0000000   0.0000000   0.0000000   0.0000000   0.0000000   0.0000000   0.0000000   0.0000000   0.0000000   0.0000000
 NQMom=    0.0000000   0.0000000   0.0000000   0.0000000   0.0000000   0.0000000   0.0000000   0.0000000   0.0000000   0.0000000
 NMagM=    0.0000000   0.0000000   2.7928460   2.7928460   2.7928460   2.7928460   2.7928460   0.0000000   0.0000000   0.0000000
 AtZNuc=   6.0000000   6.0000000   1.0000000   1.0000000   1.0000000   1.0000000   1.0000000   6.0000000   6.0000000   6.0000000

  Atom        71          72
 IAtWgt=          12          12
 AtmWgt=  12.0000000  12.0000000
 NucSpn=           0           0
 AtZEff=   0.0000000   0.0000000
 NQMom=    0.0000000   0.0000000
 NMagM=    0.0000000   0.0000000
 AtZNuc=   6.0000000   6.0000000
 Leave Link  101 at Thu Nov  8 12:15:55 2018, MaxMem=  2684354560 cpu:               2.3 elap:               0.2
 (Enter /panfs/pfs.local/work/caricato/m330c584/PANFS-WORK-MCARICATO/gdv_i11/gdv/l202.exe)
 Symmetry turned off by external request.
 Stoichiometry    C41H29NO
 Framework group  C1[X(C41H29NO)]
 Deg. of freedom   210
 Full point group                 C1      NOp   1
                          Input orientation:                          
 ---------------------------------------------------------------------
 Center     Atomic      Atomic             Coordinates (Angstroms)
 Number     Number       Type             X           Y           Z
 ---------------------------------------------------------------------
      1          6           0        1.044523   -1.074059    0.570119
      2          6           0        2.417721   -1.111219    0.591537
      3          6           0        3.199849   -0.034980   -0.024347
      4          6           0        2.431809    1.094935   -0.554247
      5          6           0        1.058738    1.070420   -0.543826
      6          6           0        0.357909   -0.001139    0.004987
      7          7           0       -1.077959   -0.006115   -0.023751
      8          6           0       -1.776555    1.020310    0.556382
      9          6           0       -1.748475   -1.038869   -0.623940
     10          8           0        4.438780   -0.068943   -0.077215
     11          6           0       -3.155648    1.020414    0.521477
     12          6           0       -3.128675   -1.066624   -0.604653
     13          1           0        0.483580   -1.903420    0.986365
     14          1           0        0.509554    1.891467   -0.990730
     15          1           0       -3.620252   -1.881401   -1.116872
     16          1           0       -3.669280    1.829626    1.020788
     17          6           0       -3.871093   -0.032465   -0.042969
     18          6           0        2.610167    3.562233   -0.853906
     19          6           0        4.342392    4.571887   -2.181607
     20          6           0        4.278511    2.179010   -1.879620
     21          6           0        4.873757    3.310037   -2.417903
     22          6           0        3.207911    4.693222   -1.391178
     23          1           0        4.816061    5.452818   -2.599018
     24          1           0        2.794060    5.672782   -1.179104
     25          1           0        1.745455    3.673394   -0.208857
     26          1           0        4.711637    1.203262   -2.043196
     27          1           0        5.766703    3.204695   -3.023551
     28          6           0        4.293686   -4.499925    2.436812
     29          6           0        2.582564   -2.811404    2.413966
     30          6           0        4.244494   -2.837203    0.689021
     31          6           0        3.167487   -3.921869    3.005505
     32          6           0        4.827792   -3.948323    1.278980
     33          1           0        4.680163   -2.397904   -0.195999
     34          1           0        5.714039   -4.384214    0.831877
     35          1           0        4.758382   -5.363629    2.897947
     36          1           0        2.750296   -4.326813    3.920665
     37          1           0        1.721942   -2.351281    2.886681
     38          6           0       -6.043041   -1.248021    0.112161
     39          6           0       -7.428855   -1.263150    0.110716
     40          6           0       -7.455655    1.115802   -0.221614
     41          6           0       -8.138825   -0.081853   -0.057816
     42          6           0       -6.069877    1.133238   -0.213610
     43          1           0       -5.546185    2.069596   -0.364205
     44          1           0       -9.221813   -0.094563   -0.061479
     45          1           0       -7.956109   -2.199256    0.247661
     46          1           0       -8.003794    2.039271   -0.362265
     47          1           0       -5.498365   -2.171781    0.266141
     48          6           0       -0.098609   -1.777620   -2.363148
     49          6           0       -1.276769   -3.430280   -1.067199
     50          6           0       -0.629928   -4.440342   -1.766020
     51          6           0        0.275235   -4.120396   -2.765696
     52          6           0        0.533315   -2.787548   -3.066052
     53          1           0       -1.971075   -3.681440   -0.273613
     54          1           0       -0.826874   -5.476201   -1.519095
     55          1           0        0.787831   -4.906679   -3.306009
     56          1           0        1.243268   -2.532414   -3.842699
     57          1           0        0.132879   -0.743225   -2.580014
     58          6           0       -0.165428    1.839233    2.302109
     59          6           0       -1.343719    3.428845    0.930451
     60          6           0       -0.716481    4.471825    1.599249
     61          6           0        0.448827    2.881353    2.973124
     62          6           0        0.181008    4.199480    2.619713
     63          1           0       -2.030013    3.642274    0.119107
     64          1           0       -0.923167    5.495526    1.312376
     65          1           0        0.680425    5.010540    3.135167
     66          1           0        1.154458    2.663194    3.764725
     67          1           0        0.075804    0.816238    2.558326
     68          6           0        3.122807    2.283991   -1.099910
     69          6           0        3.097570   -2.255725    1.238809
     70          6           0       -5.346278   -0.049054   -0.048360
     71          6           0       -1.008956   -2.095223   -1.354825
     72          6           0       -1.065895    2.108372    1.271139
 ---------------------------------------------------------------------
 Rotational constants (GHZ):           0.0973466           0.0597689           0.0459697
 Leave Link  202 at Thu Nov  8 12:15:55 2018, MaxMem=  2684354560 cpu:               5.0 elap:               0.4
 (Enter /panfs/pfs.local/work/caricato/m330c584/PANFS-WORK-MCARICATO/gdv_i11/gdv/l301.exe)
 Standard basis: 6-31+G(d) (6D, 7F)
 Ernie: Thresh=  0.10000D-02 Tol=  0.10000D-05 Strict=F.
   875 basis functions,  1492 primitive gaussians,   875 cartesian basis functions
   145 alpha electrons      145 beta electrons
       nuclear repulsion energy      4652.5853001516 Hartrees.
 IExCor=  402 DFT=T Ex+Corr=B3LYP ExCW=0 ScaHFX=  0.200000
 ScaDFX=  0.800000  0.720000  1.000000  0.810000 ScalE2=  1.000000  1.000000
 IRadAn=      5 IRanWt=     -1 IRanGd=            0 ICorTp=0 IEmpDi=  4
 NAtoms=   72 NActive=   72 NUniq=   72 SFac= 1.00D+00 NAtFMM=   60 NAOKFM=T Big=T
 Integral buffers will be    131072 words long.
 Regular integral format.
 Two-electron integral symmetry is turned off.
 Leave Link  301 at Thu Nov  8 12:15:56 2018, MaxMem=  2684354560 cpu:               1.8 elap:               0.2
 (Enter /panfs/pfs.local/work/caricato/m330c584/PANFS-WORK-MCARICATO/gdv_i11/gdv/l302.exe)
 NPDir=0 NMtPBC=     1 NCelOv=     1 NCel=       1 NClECP=     1 NCelD=      1
         NCelK=      1 NCelE2=     1 NClLst=     1 CellRange=     0.0.
 One-electron integrals computed using PRISM.
 NBasis=   875 RedAO= T EigKep=  1.19D-06  NBF=   875
 NBsUse=   862 1.00D-06 EigRej=  8.75D-07 NBFU=   862
 Precomputing XC quadrature grid using
 IXCGrd= 4 IRadAn=           5 IRanWt=          -1 IRanGd=           0 AccXCQ= 0.00D+00.
 Generated NRdTot=       0 NPtTot=           0 NUsed=           0 NTot=          32
 NSgBfM=   857   856   857   857   857 MxSgAt=    72 MxSgA2=    72.
 Leave Link  302 at Thu Nov  8 12:16:04 2018, MaxMem=  2684354560 cpu:             133.7 elap:               8.5
 (Enter /panfs/pfs.local/work/caricato/m330c584/PANFS-WORK-MCARICATO/gdv_i11/gdv/l303.exe)
 DipDrv:  MaxL=1.
 Leave Link  303 at Thu Nov  8 12:16:06 2018, MaxMem=  2684354560 cpu:              10.2 elap:               1.0
 (Enter /panfs/pfs.local/work/caricato/m330c584/PANFS-WORK-MCARICATO/gdv_i11/gdv/l308.exe)
 Leave Link  308 at Thu Nov  8 12:16:07 2018, MaxMem=  2684354560 cpu:               9.2 elap:               1.1
 (Enter /panfs/pfs.local/work/caricato/m330c584/PANFS-WORK-MCARICATO/gdv_i11/gdv/l401.exe)
 ExpMin= 4.38D-02 ExpMax= 5.48D+03 ExpMxC= 8.25D+02 IAcc=3 IRadAn=         5 AccDes= 0.00D+00
 Harris functional with IExCor=  402 and IRadAn=       5 diagonalized for initial guess.
 HarFok:  IExCor=  402 AccDes= 0.00D+00 IRadAn=         5 IDoV= 1 UseB2=F ITyADJ=14
 ICtDFT=  3500011 ScaDFX=  1.000000  1.000000  1.000000  1.000000
 FoFCou: FMM=F IPFlag=           0 FMFlag=      100000 FMFlg1=        2001
         NFxFlg=           0 DoJE=T BraDBF=F KetDBF=T FulRan=T
         wScrn=  0.000000 ICntrl=       500 IOpCl=  0 I1Cent=   200000004 NGrid=           0
         NMat0=    1 NMatS0=      1 NMatT0=    0 NMatD0=    1 NMtDS0=    0 NMtDT0=    0
 Symmetry not used in FoFCou.
 Harris En= -1709.89469794162    
 JPrj=0 DoOrth=F DoCkMO=F.
 Leave Link  401 at Thu Nov  8 12:16:22 2018, MaxMem=  2684354560 cpu:             229.4 elap:              14.7
 (Enter /panfs/pfs.local/work/caricato/m330c584/PANFS-WORK-MCARICATO/gdv_i11/gdv/l502.exe)
 Two-electron integral symmetry not used.
 Closed shell SCF:
 Using DIIS extrapolation, IDIIS=  1040.
 NGot=  2684354560 LenX=  2682799175 LenY=  2682032675
 Requested convergence on RMS density matrix=1.00D-08 within 128 cycles.
 Requested convergence on MAX density matrix=1.00D-06.
 Requested convergence on             energy=1.00D-06.
 No special actions if energy rises.
 Fock matrices will be formed incrementally for  20 cycles.

 Cycle   1  Pass 1  IDiag  1:
 FoFJK:  IHMeth= 1 ICntrl=       0 DoSepK=F KAlg= 0 I1Cent=           0 FoldK=F
 IRaf= 930000000 NMat=       1 IRICut=       1 DoRegI=T DoRafI=F ISym2E= 0 IDoP0=0 IntGTp=1.
 FoFCou: FMM=T IPFlag=           0 FMFlag=      100000 FMFlg1=        2001
         NFxFlg=           0 DoJE=F BraDBF=F KetDBF=F FulRan=T
         wScrn=  0.000000 ICntrl=         0 IOpCl=  0 I1Cent=           0 NGrid=           0
         NMat0=    1 NMatS0=      1 NMatT0=    0 NMatD0=    1 NMtDS0=    0 NMtDT0=    0
 Symmetry not used in FoFCou.
 FMM levels:  10  Number of levels for PrismC:   9
 E= -1708.82001276368    
 DIIS: error= 1.69D-02 at cycle   1 NSaved=   1.
 NSaved= 1 IEnMin= 1 EnMin= -1708.82001276368     IErMin= 1 ErrMin= 1.69D-02
 ErrMax= 1.69D-02  0.00D+00 EMaxC= 1.00D-01 BMatC= 9.32D-01 BMatP= 9.32D-01
 IDIUse=3 WtCom= 8.31D-01 WtEn= 1.69D-01
 Coeff-Com:  0.100D+01
 Coeff-En:   0.100D+01
 Coeff:      0.100D+01
 Gap=    -0.050 Goal=   None    Shift=    0.000
 GapD=   -0.050 DampG=0.250 DampE=0.500 DampFc=0.2500 IDamp=-1.
 Damping current iteration by 2.50D-01
 RMSDP=1.21D-01 MaxDP=1.88D+01              OVMax= 9.08D-01

 Cycle   2  Pass 1  IDiag  1:
 RMSU=  2.26D-02    CP:  1.15D+00
 E= -1708.94863169071     Delta-E=       -0.128618927035 Rises=F Damp=T
 DIIS: error= 1.00D-02 at cycle   2 NSaved=   2.
 NSaved= 2 IEnMin= 2 EnMin= -1708.94863169071     IErMin= 2 ErrMin= 1.00D-02
 ErrMax= 1.00D-02  0.00D+00 EMaxC= 1.00D-01 BMatC= 2.87D-01 BMatP= 9.32D-01
 IDIUse=3 WtCom= 9.00D-01 WtEn= 1.00D-01
 Coeff-Com: -0.149D+00 0.115D+01
 Coeff-En:   0.381D+00 0.619D+00
 Coeff:     -0.955D-01 0.110D+01
 Gap=     0.261 Goal=   None    Shift=    0.000
 RMSDP=5.08D-02 MaxDP=7.02D+00 DE=-1.29D-01 OVMax= 5.50D-01

 Cycle   3  Pass 1  IDiag  1:
 RMSU=  4.49D-02    CP:  1.13D+00 -4.31D-02
 E= -1708.48895673828     Delta-E=        0.459674952430 Rises=F Damp=F
 DIIS: error= 2.33D-02 at cycle   3 NSaved=   3.
 NSaved= 3 IEnMin= 2 EnMin= -1708.94863169071     IErMin= 2 ErrMin= 1.00D-02
 ErrMax= 2.33D-02  0.00D+00 EMaxC= 1.00D-01 BMatC= 1.12D+00 BMatP= 2.87D-01
 IDIUse=2 WtCom= 0.00D+00 WtEn= 1.00D+00
 Coeff-En:   0.000D+00 0.618D+00 0.382D+00
 Coeff:      0.000D+00 0.618D+00 0.382D+00
 Gap=     0.329 Goal=   None    Shift=    0.000
 RMSDP=7.03D-02 MaxDP=1.05D+01 DE= 4.60D-01 OVMax= 8.66D-01

 Cycle   4  Pass 1  IDiag  1:
 RMSU=  3.16D-02    CP:  9.48D-01  9.34D-01 -1.93D-01
 E= -1707.94421552614     Delta-E=        0.544741212145 Rises=F Damp=F
 DIIS: error= 2.95D-02 at cycle   4 NSaved=   4.
 NSaved= 4 IEnMin= 2 EnMin= -1708.94863169071     IErMin= 2 ErrMin= 1.00D-02
 ErrMax= 2.95D-02  0.00D+00 EMaxC= 1.00D-01 BMatC= 1.22D+00 BMatP= 2.87D-01
 IDIUse=2 WtCom= 0.00D+00 WtEn= 1.00D+00
 EnCoef did     3 forward-backward iterations
 Coeff-En:   0.107D+00 0.000D+00 0.484D+00 0.409D+00
 Coeff:      0.107D+00 0.000D+00 0.484D+00 0.409D+00
 Gap=    -0.088 Goal=   None    Shift=    0.000
 RMSDP=3.82D-02 MaxDP=6.20D+00 DE= 5.45D-01 OVMax= 9.30D-01

 Cycle   5  Pass 1  IDiag  1:
 RMSU=  9.53D-03    CP:  7.83D-01  3.81D-01 -1.36D-02  1.83D-01
 E= -1709.73150315956     Delta-E=       -1.787287633421 Rises=F Damp=F
 DIIS: error= 8.16D-03 at cycle   5 NSaved=   5.
 NSaved= 5 IEnMin= 5 EnMin= -1709.73150315956     IErMin= 5 ErrMin= 8.16D-03
 ErrMax= 8.16D-03  0.00D+00 EMaxC= 1.00D-01 BMatC= 9.85D-02 BMatP= 2.87D-01
 IDIUse=3 WtCom= 9.18D-01 WtEn= 8.16D-02
 Coeff-Com: -0.272D+00 0.545D+00 0.163D+00 0.471D-01 0.517D+00
 Coeff-En:   0.000D+00 0.000D+00 0.000D+00 0.934D-01 0.907D+00
 Coeff:     -0.249D+00 0.501D+00 0.150D+00 0.509D-01 0.548D+00
 Gap=     0.116 Goal=   None    Shift=    0.000
 RMSDP=1.59D-02 MaxDP=2.82D+00 DE=-1.79D+00 OVMax= 7.59D-02

 Cycle   6  Pass 1  IDiag  1:
 RMSU=  1.03D-02    CP:  8.25D-01  1.31D-01  1.80D-01  2.05D-01  7.52D-01
 E= -1709.72905799869     Delta-E=        0.002445160869 Rises=F Damp=F
 DIIS: error= 6.41D-03 at cycle   6 NSaved=   6.
 NSaved= 6 IEnMin= 5 EnMin= -1709.73150315956     IErMin= 6 ErrMin= 6.41D-03
 ErrMax= 6.41D-03  0.00D+00 EMaxC= 1.00D-01 BMatC= 7.35D-02 BMatP= 9.85D-02
 IDIUse=3 WtCom= 9.36D-01 WtEn= 6.41D-02
 EnCoef did     2 forward-backward iterations
 Coeff-Com: -0.266D+00 0.389D+00-0.169D-01-0.804D-02 0.404D+00 0.498D+00
 Coeff-En:   0.000D+00 0.000D+00 0.000D+00 0.882D-01 0.446D+00 0.466D+00
 Coeff:     -0.249D+00 0.364D+00-0.158D-01-0.188D-02 0.407D+00 0.496D+00
 Gap=     0.070 Goal=   None    Shift=    0.000
 RMSDP=9.94D-03 MaxDP=1.50D+00 DE= 2.45D-03 OVMax= 1.00D-01

 Cycle   7  Pass 1  IDiag  1:
 RMSU=  3.92D-03    CP:  8.27D-01  3.51D-01  3.23D-02  2.75D-01  1.01D+00
                    CP:  8.06D-01
 E= -1709.81339649191     Delta-E=       -0.084338493226 Rises=F Damp=F
 DIIS: error= 3.03D-03 at cycle   7 NSaved=   7.
 NSaved= 7 IEnMin= 7 EnMin= -1709.81339649191     IErMin= 7 ErrMin= 3.03D-03
 ErrMax= 3.03D-03  0.00D+00 EMaxC= 1.00D-01 BMatC= 1.35D-02 BMatP= 7.35D-02
 IDIUse=3 WtCom= 9.70D-01 WtEn= 3.03D-02
 Coeff-Com: -0.165D+00 0.243D+00-0.355D-01-0.247D-03 0.161D+00 0.236D+00
 Coeff-Com:  0.562D+00
 Coeff-En:   0.000D+00 0.000D+00 0.000D+00 0.183D-01 0.000D+00 0.000D+00
 Coeff-En:   0.982D+00
 Coeff:     -0.160D+00 0.235D+00-0.345D-01 0.316D-03 0.156D+00 0.229D+00
 Coeff:      0.575D+00
 Gap=     0.066 Goal=   None    Shift=    0.000
 RMSDP=2.62D-03 MaxDP=5.00D-01 DE=-8.43D-02 OVMax= 4.55D-02

 Cycle   8  Pass 1  IDiag  1:
 RMSU=  1.60D-03    CP:  8.32D-01  3.59D-01  1.89D-02  3.12D-01  1.01D+00
                    CP:  9.06D-01  1.28D+00
 E= -1709.82442461453     Delta-E=       -0.011028122617 Rises=F Damp=F
 DIIS: error= 1.89D-03 at cycle   8 NSaved=   8.
 NSaved= 8 IEnMin= 8 EnMin= -1709.82442461453     IErMin= 8 ErrMin= 1.89D-03
 ErrMax= 1.89D-03  0.00D+00 EMaxC= 1.00D-01 BMatC= 5.12D-03 BMatP= 1.35D-02
 IDIUse=3 WtCom= 9.81D-01 WtEn= 1.89D-02
 Coeff-Com: -0.406D-01 0.686D-01-0.223D-01 0.597D-02-0.721D-01-0.738D-01
 Coeff-Com:  0.198D+00 0.936D+00
 Coeff-En:   0.000D+00 0.000D+00 0.000D+00 0.000D+00 0.000D+00 0.000D+00
 Coeff-En:   0.000D+00 0.100D+01
 Coeff:     -0.398D-01 0.673D-01-0.219D-01 0.586D-02-0.708D-01-0.724D-01
 Coeff:      0.195D+00 0.937D+00
 Gap=     0.056 Goal=   None    Shift=    0.000
 RMSDP=2.95D-03 MaxDP=2.82D-01 DE=-1.10D-02 OVMax= 8.16D-02

 Cycle   9  Pass 1  IDiag  1:
 RMSU=  1.56D-03    CP:  8.37D-01  3.92D-01  4.89D-03  3.31D-01  1.05D+00
                    CP:  9.24D-01  1.78D+00  1.40D+00
 E= -1709.83124155684     Delta-E=       -0.006816942308 Rises=F Damp=F
 DIIS: error= 6.51D-04 at cycle   9 NSaved=   9.
 NSaved= 9 IEnMin= 9 EnMin= -1709.83124155684     IErMin= 9 ErrMin= 6.51D-04
 ErrMax= 6.51D-04  0.00D+00 EMaxC= 1.00D-01 BMatC= 5.67D-04 BMatP= 5.12D-03
 IDIUse=3 WtCom= 9.93D-01 WtEn= 6.51D-03
 Coeff-Com: -0.876D-02 0.191D-01 0.272D-02 0.132D-02-0.446D-01-0.501D-01
 Coeff-Com: -0.204D+00 0.574D+00 0.711D+00
 Coeff-En:   0.000D+00 0.000D+00 0.000D+00 0.000D+00 0.000D+00 0.000D+00
 Coeff-En:   0.000D+00 0.000D+00 0.100D+01
 Coeff:     -0.870D-02 0.190D-01 0.271D-02 0.131D-02-0.444D-01-0.498D-01
 Coeff:     -0.203D+00 0.570D+00 0.713D+00
 Gap=     0.059 Goal=   None    Shift=    0.000
 RMSDP=9.82D-04 MaxDP=1.29D-01 DE=-6.82D-03 OVMax= 1.67D-02

 Cycle  10  Pass 1  IDiag  1:
 RMSU=  5.82D-04    CP:  8.40D-01  3.94D-01  7.42D-03  3.36D-01  1.04D+00
                    CP:  9.45D-01  1.85D+00  1.75D+00  1.11D+00
 E= -1709.83177004743     Delta-E=       -0.000528490595 Rises=F Damp=F
 DIIS: error= 4.30D-04 at cycle  10 NSaved=  10.
 NSaved=10 IEnMin=10 EnMin= -1709.83177004743     IErMin=10 ErrMin= 4.30D-04
 ErrMax= 4.30D-04  0.00D+00 EMaxC= 1.00D-01 BMatC= 1.89D-04 BMatP= 5.67D-04
 IDIUse=3 WtCom= 9.96D-01 WtEn= 4.30D-03
 Coeff-Com: -0.144D-02 0.447D-02 0.538D-02-0.937D-03-0.162D-01-0.163D-01
 Coeff-Com: -0.194D+00 0.255D+00 0.529D+00 0.435D+00
 Coeff-En:   0.000D+00 0.000D+00 0.000D+00 0.000D+00 0.000D+00 0.000D+00
 Coeff-En:   0.000D+00 0.000D+00 0.180D+00 0.820D+00
 Coeff:     -0.144D-02 0.445D-02 0.535D-02-0.933D-03-0.161D-01-0.163D-01
 Coeff:     -0.193D+00 0.254D+00 0.528D+00 0.437D+00
 Gap=     0.058 Goal=   None    Shift=    0.000
 RMSDP=5.33D-04 MaxDP=5.59D-02 DE=-5.28D-04 OVMax= 1.42D-02

 Cycle  11  Pass 1  IDiag  1:
 RMSU=  3.39D-04    CP:  8.40D-01  3.95D-01  8.19D-03  3.33D-01  1.05D+00
                    CP:  9.39D-01  1.91D+00  1.74D+00  1.28D+00  8.75D-01
 E= -1709.83196581643     Delta-E=       -0.000195769000 Rises=F Damp=F
 DIIS: error= 1.30D-04 at cycle  11 NSaved=  11.
 NSaved=11 IEnMin=11 EnMin= -1709.83196581643     IErMin=11 ErrMin= 1.30D-04
 ErrMax= 1.30D-04  0.00D+00 EMaxC= 1.00D-01 BMatC= 2.95D-05 BMatP= 1.89D-04
 IDIUse=3 WtCom= 9.99D-01 WtEn= 1.30D-03
 Coeff-Com: -0.171D-02 0.228D-02 0.229D-02-0.246D-03 0.301D-03 0.179D-02
 Coeff-Com: -0.740D-01 0.955D-01 0.190D+00 0.235D+00 0.549D+00
 Coeff-En:   0.000D+00 0.000D+00 0.000D+00 0.000D+00 0.000D+00 0.000D+00
 Coeff-En:   0.000D+00 0.000D+00 0.000D+00 0.651D-01 0.935D+00
 Coeff:     -0.171D-02 0.227D-02 0.228D-02-0.246D-03 0.301D-03 0.179D-02
 Coeff:     -0.740D-01 0.954D-01 0.190D+00 0.235D+00 0.549D+00
 Gap=     0.059 Goal=   None    Shift=    0.000
 RMSDP=1.82D-04 MaxDP=2.54D-02 DE=-1.96D-04 OVMax= 1.82D-03

 Cycle  12  Pass 1  IDiag  1:
 RMSU=  8.43D-05    CP:  8.40D-01  3.91D-01  1.02D-02  3.31D-01  1.05D+00
                    CP:  9.43D-01  1.90D+00  1.75D+00  1.27D+00  9.32D-01
                    CP:  9.16D-01
 E= -1709.83199292560     Delta-E=       -0.000027109169 Rises=F Damp=F
 DIIS: error= 5.55D-05 at cycle  12 NSaved=  12.
 NSaved=12 IEnMin=12 EnMin= -1709.83199292560     IErMin=12 ErrMin= 5.55D-05
 ErrMax= 5.55D-05  0.00D+00 EMaxC= 1.00D-01 BMatC= 5.23D-06 BMatP= 2.95D-05
 IDIUse=1 WtCom= 1.00D+00 WtEn= 0.00D+00
 Coeff-Com:  0.336D-03-0.103D-02 0.305D-03 0.128D-03 0.105D-02 0.195D-02
 Coeff-Com: -0.752D-02 0.283D-01 0.925D-02 0.583D-01 0.272D+00 0.637D+00
 Coeff:      0.336D-03-0.103D-02 0.305D-03 0.128D-03 0.105D-02 0.195D-02
 Coeff:     -0.752D-02 0.283D-01 0.925D-02 0.583D-01 0.272D+00 0.637D+00
 Gap=     0.059 Goal=   None    Shift=    0.000
 RMSDP=7.09D-05 MaxDP=1.00D-02 DE=-2.71D-05 OVMax= 1.07D-03

 Cycle  13  Pass 1  IDiag  1:
 RMSU=  2.71D-05    CP:  8.40D-01  3.91D-01  1.08D-02  3.30D-01  1.05D+00
                    CP:  9.41D-01  1.89D+00  1.75D+00  1.29D+00  9.73D-01
                    CP:  9.81D-01  8.77D-01
 E= -1709.83199644807     Delta-E=       -0.000003522470 Rises=F Damp=F
 DIIS: error= 4.27D-05 at cycle  13 NSaved=  13.
 NSaved=13 IEnMin=13 EnMin= -1709.83199644807     IErMin=13 ErrMin= 4.27D-05
 ErrMax= 4.27D-05  0.00D+00 EMaxC= 1.00D-01 BMatC= 2.30D-06 BMatP= 5.23D-06
 IDIUse=1 WtCom= 1.00D+00 WtEn= 0.00D+00
 Coeff-Com:  0.517D-03-0.908D-03-0.165D-03 0.141D-03-0.143D-03 0.505D-03
 Coeff-Com:  0.778D-02 0.109D-01-0.245D-01-0.529D-02-0.117D-01 0.313D+00
 Coeff-Com:  0.710D+00
 Coeff:      0.517D-03-0.908D-03-0.165D-03 0.141D-03-0.143D-03 0.505D-03
 Coeff:      0.778D-02 0.109D-01-0.245D-01-0.529D-02-0.117D-01 0.313D+00
 Coeff:      0.710D+00
 Gap=     0.059 Goal=   None    Shift=    0.000
 RMSDP=4.92D-05 MaxDP=4.84D-03 DE=-3.52D-06 OVMax= 6.74D-04

 Cycle  14  Pass 1  IDiag  1:
 RMSU=  1.51D-05    CP:  8.40D-01  3.90D-01  1.13D-02  3.30D-01  1.05D+00
                    CP:  9.41D-01  1.89D+00  1.75D+00  1.28D+00  9.89D-01
                    CP:  1.00D+00  9.99D-01  8.93D-01
 E= -1709.83199895508     Delta-E=       -0.000002507003 Rises=F Damp=F
 DIIS: error= 1.36D-05 at cycle  14 NSaved=  14.
 NSaved=14 IEnMin=14 EnMin= -1709.83199895508     IErMin=14 ErrMin= 1.36D-05
 ErrMax= 1.36D-05  0.00D+00 EMaxC= 1.00D-01 BMatC= 3.40D-07 BMatP= 2.30D-06
 IDIUse=1 WtCom= 1.00D+00 WtEn= 0.00D+00
 Coeff-Com:  0.298D-03-0.392D-03-0.160D-03 0.704D-04-0.585D-03-0.275D-03
 Coeff-Com:  0.614D-02 0.417D-02-0.154D-01-0.147D-01-0.906D-01 0.406D-01
 Coeff-Com:  0.441D+00 0.630D+00
 Coeff:      0.298D-03-0.392D-03-0.160D-03 0.704D-04-0.585D-03-0.275D-03
 Coeff:      0.614D-02 0.417D-02-0.154D-01-0.147D-01-0.906D-01 0.406D-01
 Coeff:      0.441D+00 0.630D+00
 Gap=     0.059 Goal=   None    Shift=    0.000
 RMSDP=2.50D-05 MaxDP=3.18D-03 DE=-2.51D-06 OVMax= 2.78D-04

 Cycle  15  Pass 1  IDiag  1:
 RMSU=  6.15D-06    CP:  8.40D-01  3.89D-01  1.15D-02  3.29D-01  1.05D+00
                    CP:  9.41D-01  1.89D+00  1.74D+00  1.27D+00  9.95D-01
                    CP:  1.00D+00  1.07D+00  1.05D+00  8.24D-01
 E= -1709.83199934351     Delta-E=       -0.000000388436 Rises=F Damp=F
 DIIS: error= 3.52D-06 at cycle  15 NSaved=  15.
 NSaved=15 IEnMin=15 EnMin= -1709.83199934351     IErMin=15 ErrMin= 3.52D-06
 ErrMax= 3.52D-06  0.00D+00 EMaxC= 1.00D-01 BMatC= 1.22D-08 BMatP= 3.40D-07
 IDIUse=1 WtCom= 1.00D+00 WtEn= 0.00D+00
 Coeff-Com:  0.105D-03-0.128D-03-0.419D-04 0.243D-04-0.284D-03-0.164D-03
 Coeff-Com:  0.162D-02 0.203D-02-0.341D-02-0.413D-02-0.366D-01-0.187D-02
 Coeff-Com:  0.124D+00 0.299D+00 0.620D+00
 Coeff:      0.105D-03-0.128D-03-0.419D-04 0.243D-04-0.284D-03-0.164D-03
 Coeff:      0.162D-02 0.203D-02-0.341D-02-0.413D-02-0.366D-01-0.187D-02
 Coeff:      0.124D+00 0.299D+00 0.620D+00
 Gap=     0.059 Goal=   None    Shift=    0.000
 RMSDP=4.45D-06 MaxDP=5.26D-04 DE=-3.88D-07 OVMax= 3.23D-05

 Cycle  16  Pass 1  IDiag  1:
 RMSU=  2.98D-06    CP:  8.40D-01  3.89D-01  1.15D-02  3.29D-01  1.05D+00
                    CP:  9.41D-01  1.89D+00  1.74D+00  1.28D+00  9.94D-01
                    CP:  1.00D+00  1.07D+00  1.01D+00  8.51D-01  7.32D-01
 E= -1709.83199935187     Delta-E=       -0.000000008360 Rises=F Damp=F
 DIIS: error= 1.44D-06 at cycle  16 NSaved=  16.
 NSaved=16 IEnMin=16 EnMin= -1709.83199935187     IErMin=16 ErrMin= 1.44D-06
 ErrMax= 1.44D-06  0.00D+00 EMaxC= 1.00D-01 BMatC= 4.18D-09 BMatP= 1.22D-08
 IDIUse=1 WtCom= 1.00D+00 WtEn= 0.00D+00
 Coeff-Com:  0.782D-05-0.177D-05-0.887D-06 0.201D-05-0.677D-04-0.214D-04
 Coeff-Com:  0.619D-04 0.237D-03 0.317D-03-0.361D-03-0.845D-02-0.119D-01
 Coeff-Com: -0.835D-02 0.818D-01 0.438D+00 0.509D+00
 Coeff:      0.782D-05-0.177D-05-0.887D-06 0.201D-05-0.677D-04-0.214D-04
 Coeff:      0.619D-04 0.237D-03 0.317D-03-0.361D-03-0.845D-02-0.119D-01
 Coeff:     -0.835D-02 0.818D-01 0.438D+00 0.509D+00
 Gap=     0.059 Goal=   None    Shift=    0.000
 RMSDP=3.11D-06 MaxDP=2.36D-04 DE=-8.36D-09 OVMax= 4.75D-05

 Cycle  17  Pass 1  IDiag  1:
 RMSU=  8.59D-07    CP:  8.40D-01  3.89D-01  1.16D-02  3.29D-01  1.05D+00
                    CP:  9.41D-01  1.89D+00  1.74D+00  1.27D+00  9.95D-01
                    CP:  1.00D+00  1.07D+00  1.03D+00  8.80D-01  8.90D-01
                    CP:  6.59D-01
 E= -1709.83199935669     Delta-E=       -0.000000004816 Rises=F Damp=F
 DIIS: error= 3.27D-07 at cycle  17 NSaved=  17.
 NSaved=17 IEnMin=17 EnMin= -1709.83199935669     IErMin=17 ErrMin= 3.27D-07
 ErrMax= 3.27D-07  0.00D+00 EMaxC= 1.00D-01 BMatC= 2.57D-10 BMatP= 4.18D-09
 IDIUse=1 WtCom= 1.00D+00 WtEn= 0.00D+00
 Coeff-Com: -0.237D-05 0.727D-05 0.318D-05-0.117D-06-0.201D-04-0.109D-05
 Coeff-Com: -0.893D-04 0.130D-05 0.425D-03 0.144D-03-0.187D-02-0.613D-02
 Coeff-Com: -0.122D-01 0.269D-01 0.200D+00 0.284D+00 0.509D+00
 Coeff:     -0.237D-05 0.727D-05 0.318D-05-0.117D-06-0.201D-04-0.109D-05
 Coeff:     -0.893D-04 0.130D-05 0.425D-03 0.144D-03-0.187D-02-0.613D-02
 Coeff:     -0.122D-01 0.269D-01 0.200D+00 0.284D+00 0.509D+00
 Gap=     0.059 Goal=   None    Shift=    0.000
 RMSDP=4.97D-07 MaxDP=1.13D-04 DE=-4.82D-09 OVMax= 3.98D-06

 Cycle  18  Pass 1  IDiag  1:
 RMSU=  2.55D-07    CP:  8.40D-01  3.89D-01  1.16D-02  3.29D-01  1.05D+00
                    CP:  9.41D-01  1.89D+00  1.74D+00  1.27D+00  9.95D-01
                    CP:  1.00D+00  1.07D+00  1.03D+00  8.92D-01  8.94D-01
                    CP:  7.12D-01  8.17D-01
 E= -1709.83199935729     Delta-E=       -0.000000000601 Rises=F Damp=F
 DIIS: error= 2.05D-07 at cycle  18 NSaved=  18.
 NSaved=18 IEnMin=18 EnMin= -1709.83199935729     IErMin=18 ErrMin= 2.05D-07
 ErrMax= 2.05D-07  0.00D+00 EMaxC= 1.00D-01 BMatC= 6.28D-11 BMatP= 2.57D-10
 IDIUse=1 WtCom= 1.00D+00 WtEn= 0.00D+00
 Coeff-Com: -0.130D-05 0.224D-05 0.211D-05-0.170D-06-0.190D-05 0.141D-05
 Coeff-Com: -0.611D-04-0.355D-04 0.181D-03 0.166D-03 0.498D-03-0.125D-02
 Coeff-Com: -0.465D-02 0.388D-02 0.441D-01 0.835D-01 0.290D+00 0.583D+00
 Coeff:     -0.130D-05 0.224D-05 0.211D-05-0.170D-06-0.190D-05 0.141D-05
 Coeff:     -0.611D-04-0.355D-04 0.181D-03 0.166D-03 0.498D-03-0.125D-02
 Coeff:     -0.465D-02 0.388D-02 0.441D-01 0.835D-01 0.290D+00 0.583D+00
 Gap=     0.059 Goal=   None    Shift=    0.000
 RMSDP=3.47D-07 MaxDP=3.61D-05 DE=-6.01D-10 OVMax= 6.92D-06

 Cycle  19  Pass 1  IDiag  1:
 RMSU=  1.41D-07    CP:  8.40D-01  3.89D-01  1.16D-02  3.29D-01  1.05D+00
                    CP:  9.41D-01  1.89D+00  1.74D+00  1.27D+00  9.95D-01
                    CP:  1.00D+00  1.07D+00  1.03D+00  8.89D-01  8.95D-01
                    CP:  7.02D-01  8.26D-01  7.59D-01
 E= -1709.83199935672     Delta-E=        0.000000000572 Rises=F Damp=F
 DIIS: error= 4.87D-08 at cycle  19 NSaved=  19.
 NSaved=19 IEnMin=18 EnMin= -1709.83199935729     IErMin=19 ErrMin= 4.87D-08
 ErrMax= 4.87D-08  0.00D+00 EMaxC= 1.00D-01 BMatC= 4.82D-12 BMatP= 6.28D-11
 IDIUse=1 WtCom= 1.00D+00 WtEn= 0.00D+00
 Coeff-Com: -0.753D-06 0.846D-06 0.627D-06-0.850D-07 0.196D-05 0.154D-05
 Coeff-Com: -0.161D-04-0.448D-04 0.371D-04 0.518D-04 0.457D-03-0.239D-03
 Coeff-Com: -0.147D-02-0.516D-03 0.328D-02 0.176D-01 0.108D+00 0.352D+00
 Coeff-Com:  0.521D+00
 Coeff:     -0.753D-06 0.846D-06 0.627D-06-0.850D-07 0.196D-05 0.154D-05
 Coeff:     -0.161D-04-0.448D-04 0.371D-04 0.518D-04 0.457D-03-0.239D-03
 Coeff:     -0.147D-02-0.516D-03 0.328D-02 0.176D-01 0.108D+00 0.352D+00
 Coeff:      0.521D+00
 Gap=     0.059 Goal=   None    Shift=    0.000
 RMSDP=9.12D-08 MaxDP=1.17D-05 DE= 5.72D-10 OVMax= 8.17D-07

 Cycle  20  Pass 1  IDiag  1:
 RMSU=  3.22D-08    CP:  8.40D-01  3.89D-01  1.16D-02  3.29D-01  1.05D+00
                    CP:  9.41D-01  1.89D+00  1.74D+00  1.27D+00  9.95D-01
                    CP:  1.00D+00  1.07D+00  1.03D+00  8.90D-01  8.96D-01
                    CP:  7.12D-01  8.25D-01  8.46D-01  7.46D-01
 E= -1709.83199935657     Delta-E=        0.000000000147 Rises=F Damp=F
 DIIS: error= 1.59D-08 at cycle  20 NSaved=  20.
 NSaved=20 IEnMin=18 EnMin= -1709.83199935729     IErMin=20 ErrMin= 1.59D-08
 ErrMax= 1.59D-08  0.00D+00 EMaxC= 1.00D-01 BMatC= 7.20D-13 BMatP= 4.82D-12
 IDIUse=1 WtCom= 1.00D+00 WtEn= 0.00D+00
 Coeff-Com: -0.180D-06 0.103D-06 0.170D-06-0.335D-08 0.114D-05-0.146D-06
 Coeff-Com: -0.243D-05-0.171D-04 0.127D-05 0.145D-04 0.229D-03 0.864D-04
 Coeff-Com: -0.113D-03-0.917D-03-0.576D-02-0.359D-02 0.153D-01 0.118D+00
 Coeff-Com:  0.308D+00 0.570D+00
 Coeff:     -0.180D-06 0.103D-06 0.170D-06-0.335D-08 0.114D-05-0.146D-06
 Coeff:     -0.243D-05-0.171D-04 0.127D-05 0.145D-04 0.229D-03 0.864D-04
 Coeff:     -0.113D-03-0.917D-03-0.576D-02-0.359D-02 0.153D-01 0.118D+00
 Coeff:      0.308D+00 0.570D+00
 Gap=     0.059 Goal=   None    Shift=    0.000
 RMSDP=3.37D-08 MaxDP=3.28D-06 DE= 1.47D-10 OVMax= 4.01D-07

 Cycle  21  Pass 1  IDiag  1:
 Restarting incremental Fock formation.
 E= -1709.83199935677     Delta-E=       -0.000000000197 Rises=F Damp=F
 DIIS: error= 5.12D-09 at cycle  21 NSaved=  20.
 NSaved=20 IEnMin=17 EnMin= -1709.83199935729     IErMin=20 ErrMin= 5.12D-09
 ErrMax= 5.12D-09  0.00D+00 EMaxC= 1.00D-01 BMatC= 4.83D-14 BMatP= 7.20D-13
 IDIUse=1 WtCom= 1.00D+00 WtEn= 0.00D+00
 Coeff-Com:  0.913D-07-0.169D-06 0.197D-07 0.174D-06-0.552D-06 0.137D-05
 Coeff-Com: -0.352D-05-0.551D-05 0.148D-05 0.728D-04 0.917D-04 0.147D-03
 Coeff-Com: -0.412D-03-0.377D-02-0.434D-02-0.501D-02 0.243D-01 0.111D+00
 Coeff-Com:  0.298D+00 0.579D+00
 Coeff:      0.913D-07-0.169D-06 0.197D-07 0.174D-06-0.552D-06 0.137D-05
 Coeff:     -0.352D-05-0.551D-05 0.148D-05 0.728D-04 0.917D-04 0.147D-03
 Coeff:     -0.412D-03-0.377D-02-0.434D-02-0.501D-02 0.243D-01 0.111D+00
 Coeff:      0.298D+00 0.579D+00
 Gap=     0.059 Goal=   None    Shift=    0.000
 RMSDP=1.65D-08 MaxDP=1.57D-06 DE=-1.97D-10 OVMax= 1.13D-07

 Cycle  22  Pass 1  IDiag  1:
 RMSU=  1.60D-08    CP:  1.00D+00
 E= -1709.83199935724     Delta-E=       -0.000000000477 Rises=F Damp=F
 DIIS: error= 3.23D-09 at cycle  22 NSaved=  20.
 NSaved=20 IEnMin=16 EnMin= -1709.83199935729     IErMin=20 ErrMin= 3.23D-09
 ErrMax= 3.23D-09  0.00D+00 EMaxC= 1.00D-01 BMatC= 2.05D-14 BMatP= 4.83D-14
 IDIUse=1 WtCom= 1.00D+00 WtEn= 0.00D+00
 Coeff-Com:  0.334D-07-0.514D-07 0.970D-08-0.290D-06 0.787D-06-0.537D-07
 Coeff-Com: -0.189D-05-0.945D-07 0.153D-04 0.285D-04 0.569D-04-0.132D-03
 Coeff-Com: -0.136D-02-0.186D-02-0.426D-02 0.115D-02 0.276D-01 0.982D-01
 Coeff-Com:  0.361D+00 0.519D+00
 Coeff:      0.334D-07-0.514D-07 0.970D-08-0.290D-06 0.787D-06-0.537D-07
 Coeff:     -0.189D-05-0.945D-07 0.153D-04 0.285D-04 0.569D-04-0.132D-03
 Coeff:     -0.136D-02-0.186D-02-0.426D-02 0.115D-02 0.276D-01 0.982D-01
 Coeff:      0.361D+00 0.519D+00
 Gap=     0.059 Goal=   None    Shift=    0.000
 RMSDP=7.73D-09 MaxDP=7.58D-07 DE=-4.77D-10 OVMax= 1.00D-07

 SCF Done:  E(RB3LYP) =  -1709.83199936     A.U. after   22 cycles
            NFock= 22  Conv=0.77D-08     -V/T= 2.0090
 KE= 1.694654403428D+03 PE=-1.326598714440D+04 EE= 5.208915441460D+03
 Leave Link  502 at Thu Nov  8 12:33:54 2018, MaxMem=  2684354560 cpu:           16814.0 elap:            1051.7
 (Enter /panfs/pfs.local/work/caricato/m330c584/PANFS-WORK-MCARICATO/gdv_i11/gdv/l801.exe)
 DoSCS=F DFT=T ScalE2(SS,OS)=  1.000000  1.000000
 ExpMin= 4.38D-02 ExpMax= 5.48D+03 ExpMxC= 8.25D+02 IAcc=3 IRadAn=         5 AccDes= 0.00D+00
 HarFok:  IExCor=  205 AccDes= 0.00D+00 IRadAn=         5 IDoV=-2 UseB2=F ITyADJ=14
 ICtDFT= 12500011 ScaDFX=  1.000000  1.000000  1.000000  1.000000
 GSVD:  LWork=       -2193 too small for GESVD, short by        9890 words or        9890 for optimal perf.
 Largest valence mixing into a core orbital is  5.64D-05
 Largest core mixing into a valence orbital is  1.25D-05
 Range of M.O.s used for correlation:    44   862
 NBasis=   875 NAE=   145 NBE=   145 NFC=    43 NFV=     0
 NROrb=    819 NOA=   102 NOB=   102 NVA=   717 NVB=   717

 **** Warning!!: The largest alpha MO coefficient is  0.12052796D+03


 **** Warning!!: The smallest alpha delta epsilon is  0.59330583D-01

 Leave Link  801 at Thu Nov  8 12:33:57 2018, MaxMem=  2684354560 cpu:              45.0 elap:               3.1
 (Enter /panfs/pfs.local/work/caricato/m330c584/PANFS-WORK-MCARICATO/gdv_i11/gdv/l914.exe)
 RHF ground state
 Two-electron integral symmetry not used.
 MDV=  2684354560 DFT=T DoStab=F Mixed=T DoRPA=T DoScal=F NonHer=T
 Making orbital integer symmetry assigments:
   400 initial guesses have been made.
 Convergence on wavefunction:    0.001000000000000
 Davidson Disk Diagonalization:  ConvIn= 1.00D-03 SkipCon=T Conv= 1.00D-03.
 Max sub-space:  6000 roots to seek:   400 dimension of matrix:       146268
 Iteration     1 Dimension   400 NMult     0 NNew    400
 CISAX will form    80 AO SS matrices at one time.
 NMat=    80 NSing=    80 JSym2X= 0.
 FoFJK:  IHMeth= 1 ICntrl=       0 DoSepK=F KAlg= 0 I1Cent=           0 FoldK=F
 IRaf= 930000000 NMat=     160 IRICut=       1 DoRegI=T DoRafI=F ISym2E= 0 IDoP0=0 IntGTp=1.
 FoFCou: FMM=T IPFlag=           0 FMFlag=      100000 FMFlg1=        2001
         NFxFlg=           0 DoJE=F BraDBF=F KetDBF=F FulRan=T
         wScrn=  0.000000 ICntrl=         0 IOpCl=  0 I1Cent=           0 NGrid=           0
         NMat0=  160 NMatS0=     80 NMatT0=    0 NMatD0=  160 NMtDS0=    0 NMtDT0=    0
 Symmetry not used in FoFCou.
 FMM levels:  10  Number of levels for PrismC:   9
 NMat=    80 NSing=    80 JSym2X= 0.
 NMat=    80 NSing=    80 JSym2X= 0.
 NMat=    80 NSing=    80 JSym2X= 0.
 NMat=    80 NSing=    80 JSym2X= 0.
 New state      8 was old state     10
 New state      9 was old state      8
 New state     10 was old state      9
 New state     11 was old state     13
 New state     13 was old state     11
 New state     18 was old state     20
 New state     19 was old state     18
 New state     20 was old state     19
 New state     21 was old state     27
 New state     22 was old state     25
 New state     23 was old state     22
 New state     24 was old state     23
 New state     25 was old state     24
 New state     26 was old state     28
 New state     27 was old state     21
 New state     28 was old state     26
 New state     29 was old state     32
 New state     30 was old state     34
 New state     32 was old state     29
 New state     34 was old state     35
 New state     35 was old state     39
 New state     36 was old state     30
 New state     37 was old state     42
 New state     38 was old state     40
 New state     39 was old state     38
 New state     40 was old state     36
 New state     41 was old state     48
 New state     42 was old state     41
 New state     43 was old state     45
 New state     44 was old state     46
 New state     45 was old state     44
 New state     46 was old state     37
 New state     48 was old state     49
 New state     49 was old state     43
 New state     52 was old state     53
 New state     53 was old state     57
 New state     54 was old state     65
 New state     55 was old state     89
 New state     56 was old state     54
 New state     57 was old state     52
 New state     58 was old state     55
 New state     59 was old state     62
 New state     60 was old state     61
 New state     61 was old state     58
 New state     62 was old state     59
 New state     63 was old state     75
 New state     64 was old state     69
 New state     65 was old state     63
 New state     66 was old state     78
 New state     67 was old state     56
 New state     68 was old state     66
 New state     69 was old state     67
 New state     70 was old state     60
 New state     72 was old state     79
 New state     73 was old state     72
 New state     74 was old state     73
 New state     75 was old state     82
 New state     76 was old state     77
 New state     77 was old state     68
 New state     78 was old state     76
 New state     79 was old state     74
 New state     80 was old state     86
 New state     81 was old state     70
 New state     82 was old state     80
 New state     83 was old state     81
 New state     85 was old state     96
 New state     86 was old state     85
 New state     87 was old state     88
 New state     88 was old state    110
 New state     89 was old state     90
 New state     90 was old state    101
 New state     91 was old state     92
 New state     92 was old state     83
 New state     94 was old state     91
 New state     95 was old state     94
 New state     96 was old state     98
 New state     97 was old state    100
 New state     98 was old state     95
 New state     99 was old state     97
 New state    100 was old state    102
 Excitation Energies [eV] at current iteration:
 Root      1 :     1.681606935504236
 Root      2 :     1.930462096173834
 Root      3 :     2.014316098252058
 Root      4 :     2.346030604365803
 Root      5 :     2.864648918967387
 Root      6 :     2.957868429234800
 Root      7 :     2.978304056487030
 Root      8 :     3.034605408137984
 Root      9 :     3.068922933095784
 Root     10 :     3.098153487226143
 Root     11 :     3.161404444945005
 Root     12 :     3.205119514122224
 Root     13 :     3.229028728311184
 Root     14 :     3.287714791871352
 Root     15 :     3.488269821262948
 Root     16 :     3.606849881001385
 Root     17 :     3.640941136802955
 Root     18 :     3.797678065551955
 Root     19 :     3.836809924880554
 Root     20 :     3.872746948572719
 Root     21 :     3.889650958345524
 Root     22 :     3.927478856714279
 Root     23 :     3.940154225986967
 Root     24 :     3.973201373485986
 Root     25 :     3.978822705414645
 Root     26 :     3.999755338371165
 Root     27 :     4.019147579943160
 Root     28 :     4.051547985947114
 Root     29 :     4.099105877014191
 Root     30 :     4.115073879512435
 Root     31 :     4.132879998776337
 Root     32 :     4.134934952672965
 Root     33 :     4.154363988156597
 Root     34 :     4.159242745493905
 Root     35 :     4.173271789229594
 Root     36 :     4.233332493898652
 Root     37 :     4.256535959586811
 Root     38 :     4.293103987111741
 Root     39 :     4.317168173732289
 Root     40 :     4.321389696963752
 Root     41 :     4.372365969976048
 Root     42 :     4.382802717223833
 Root     43 :     4.436275476910039
 Root     44 :     4.456016870857814
 Root     45 :     4.466889845338641
 Root     46 :     4.533319602408457
 Root     47 :     4.538747704764103
 Root     48 :     4.557270736843817
 Root     49 :     4.590516830364167
 Root     50 :     4.614947767674518
 Root     51 :     4.662740737333482
 Root     52 :     4.709087065869639
 Root     53 :     4.725600641585568
 Root     54 :     4.746440505583814
 Root     55 :     4.757927629736269
 Root     56 :     4.770711266741468
 Root     57 :     4.778646211820427
 Root     58 :     4.820678522217120
 Root     59 :     4.849443858638334
 Root     60 :     4.852329399852477
 Root     61 :     4.857557343734384
 Root     62 :     4.858661542105472
 Root     63 :     4.892185568161208
 Root     64 :     4.900616167370742
 Root     65 :     4.903102938489408
 Root     66 :     4.935473413245938
 Root     67 :     4.942191474782245
 Root     68 :     4.952209207140322
 Root     69 :     4.953741808768679
 Root     70 :     4.960447503420692
 Root     71 :     4.975094093944173
 Root     72 :     4.981837091328306
 Root     73 :     4.996145140751596
 Root     74 :     5.023777973143888
 Root     75 :     5.029780853600186
 Root     76 :     5.033089397093994
 Root     77 :     5.038455156719756
 Root     78 :     5.048883395630869
 Root     79 :     5.090521341148619
 Root     80 :     5.099055488837135
 Root     81 :     5.114499208076040
 Root     82 :     5.119697570972668
 Root     83 :     5.129371844525324
 Root     84 :     5.137416103676644
 Root     85 :     5.173644363669537
 Root     86 :     5.188292564867015
 Root     87 :     5.207493157698445
 Root     88 :     5.220640895031951
 Root     89 :     5.226319950138566
 Root     90 :     5.249785388556289
 Root     91 :     5.266377692917259
 Root     92 :     5.284111256293995
 Root     93 :     5.298121638409858
 Root     94 :     5.307720826976182
 Root     95 :     5.319059781904996
 Root     96 :     5.347946684755516
 Root     97 :     5.355714622600177
 Root     98 :     5.359986300352842
 Root     99 :     5.385242605703266
 Root    100 :     5.387873271265403
 Root    101 :     5.400401637629573
 Root    102 :     5.422648251902225
 Root    103 :     5.423713312191892
 Root    104 :     5.430613457942047
 Root    105 :     5.459813356438534
 Root    106 :     5.468985162212872
 Root    107 :     5.488225613973247
 Root    108 :     5.506078810573059
 Root    109 :     5.508472070897568
 Root    110 :     5.510593011239545
 Root    111 :     5.521227665757643
 Root    112 :     5.526781873423170
 Root    113 :     5.534468739456708
 Root    114 :     5.554533736372168
 Root    115 :     5.561546550590111
 Root    116 :     5.567790680706552
 Root    117 :     5.574912891017215
 Root    118 :     5.584621894289815
 Root    119 :     5.598896968385705
 Root    120 :     5.601674888003327
 Root    121 :     5.607781333856590
 Root    122 :     5.622690086045450
 Root    123 :     5.623594388365199
 Root    124 :     5.627702543385194
 Root    125 :     5.642147991965475
 Root    126 :     5.649362197277251
 Root    127 :     5.660436012713223
 Root    128 :     5.661592845612906
 Root    129 :     5.683735299020898
 Root    130 :     5.691577423426050
 Root    131 :     5.696687312199995
 Root    132 :     5.731487713973104
 Root    133 :     5.744245127170542
 Root    134 :     5.752124455896615
 Root    135 :     5.756961623288364
 Root    136 :     5.763786820420612
 Root    137 :     5.774602953086584
 Root    138 :     5.779937592194401
 Root    139 :     5.796231784520748
 Root    140 :     5.798821008194545
 Root    141 :     5.802625187493109
 Root    142 :     5.833276670484617
 Root    143 :     5.842255226088883
 Root    144 :     5.852035526828606
 Root    145 :     5.857088610060615
 Root    146 :     5.868179160686979
 Root    147 :     5.891921481443688
 Root    148 :     5.895618710907814
 Root    149 :     5.898967880918902
 Root    150 :     5.902708963584030
 Root    151 :     5.908087251787164
 Root    152 :     5.914633711520493
 Root    153 :     5.922364167580989
 Root    154 :     5.931889524002091
 Root    155 :     5.939008056724197
 Root    156 :     5.953082546328951
 Root    157 :     5.971125181523352
 Root    158 :     5.979480675443185
 Root    159 :     5.980870522490917
 Root    160 :     5.996449099294130
 Root    161 :     5.998554689637637
 Root    162 :     6.011762164871824
 Root    163 :     6.019522589091745
 Root    164 :     6.023839785877859
 Root    165 :     6.025750629857079
 Root    166 :     6.030000641118379
 Root    167 :     6.041226966769390
 Root    168 :     6.043219806883912
 Root    169 :     6.057692503489720
 Root    170 :     6.061301842208808
 Root    171 :     6.063721417188026
 Root    172 :     6.065624564779341
 Root    173 :     6.082319835878485
 Root    174 :     6.090585679019033
 Root    175 :     6.099388977199575
 Root    176 :     6.117230983991011
 Root    177 :     6.124174323958401
 Root    178 :     6.127025613993423
 Root    179 :     6.135971758705431
 Root    180 :     6.138844764763268
 Root    181 :     6.152018950240771
 Root    182 :     6.155751358544116
 Root    183 :     6.157115869565834
 Root    184 :     6.161306465541641
 Root    185 :     6.179270523598398
 Root    186 :     6.187619411335798
 Root    187 :     6.198495825216999
 Root    188 :     6.199607006800909
 Root    189 :     6.207629923925564
 Root    190 :     6.224576261511873
 Root    191 :     6.227078873515400
 Root    192 :     6.233026638896567
 Root    193 :     6.240056513139015
 Root    194 :     6.247464903583736
 Root    195 :     6.256630897219816
 Root    196 :     6.262207748586484
 Root    197 :     6.276009660857976
 Root    198 :     6.281082003216050
 Root    199 :     6.284507318912223
 Root    200 :     6.303142463522668
 Root    201 :     6.311041614666032
 Root    202 :     6.314420616526366
 Root    203 :     6.322978278918462
 Root    204 :     6.327402507840964
 Root    205 :     6.335560011467697
 Root    206 :     6.345274015036050
 Root    207 :     6.349451001295368
 Root    208 :     6.352027423058987
 Root    209 :     6.354764531225318
 Root    210 :     6.362090634686878
 Root    211 :     6.369221472508634
 Root    212 :     6.371268769352645
 Root    213 :     6.373643081519610
 Root    214 :     6.384147159399821
 Root    215 :     6.389425609362990
 Root    216 :     6.394353154331988
 Root    217 :     6.395470870892859
 Root    218 :     6.399331633784304
 Root    219 :     6.407118470080225
 Root    220 :     6.410856572973735
 Root    221 :     6.418555235699352
 Root    222 :     6.424215109394333
 Root    223 :     6.428608305849740
 Root    224 :     6.442569534200746
 Root    225 :     6.443699681979802
 Root    226 :     6.450627892452117
 Root    227 :     6.456134577890020
 Root    228 :     6.465210688777300
 Root    229 :     6.469531629013293
 Root    230 :     6.471217673614695
 Root    231 :     6.475854376424314
 Root    232 :     6.486599585307117
 Root    233 :     6.488042162145385
 Root    234 :     6.493336061828327
 Root    235 :     6.496011175432284
 Root    236 :     6.501636542713300
 Root    237 :     6.506575899772422
 Root    238 :     6.514964394241434
 Root    239 :     6.528982359230021
 Root    240 :     6.530388957514537
 Root    241 :     6.534115720436884
 Root    242 :     6.535871999337158
 Root    243 :     6.539095483500676
 Root    244 :     6.544320267874380
 Root    245 :     6.552152806201572
 Root    246 :     6.553251890006472
 Root    247 :     6.574408410660168
 Root    248 :     6.583842050303579
 Root    249 :     6.587790741657644
 Root    250 :     6.589878858176142
 Root    251 :     6.604578029092526
 Root    252 :     6.606117594020572
 Root    253 :     6.608629675005547
 Root    254 :     6.620974340769527
 Root    255 :     6.623612071377946
 Root    256 :     6.632823743447113
 Root    257 :     6.636653478470621
 Root    258 :     6.652087061300574
 Root    259 :     6.656043621204687
 Root    260 :     6.662429912122932
 Root    261 :     6.672707070121122
 Root    262 :     6.675558921161235
 Root    263 :     6.677736124330323
 Root    264 :     6.687831204122145
 Root    265 :     6.693356589117813
 Root    266 :     6.699613831282400
 Root    267 :     6.704475689532492
 Root    268 :     6.707580427530475
 Root    269 :     6.714124543526551
 Root    270 :     6.718246544346093
 Root    271 :     6.721015457088762
 Root    272 :     6.731795955523848
 Root    273 :     6.734249764081647
 Root    274 :     6.738596926948166
 Root    275 :     6.747592534870708
 Root    276 :     6.754158983431611
 Root    277 :     6.756759808055712
 Root    278 :     6.761788771563902
 Root    279 :     6.765159454211405
 Root    280 :     6.769168701099542
 Root    281 :     6.770270484039564
 Root    282 :     6.770983649625122
 Root    283 :     6.783767931005611
 Root    284 :     6.794895127096162
 Root    285 :     6.796547657501259
 Root    286 :     6.802253435869291
 Root    287 :     6.808051226996604
 Root    288 :     6.810827634825017
 Root    289 :     6.812836899131701
 Root    290 :     6.821102250654757
 Root    291 :     6.828210001589787
 Root    292 :     6.831220941559269
 Root    293 :     6.832366959465062
 Root    294 :     6.848588811911690
 Root    295 :     6.850963175944132
 Root    296 :     6.856505501693272
 Root    297 :     6.868990009276041
 Root    298 :     6.876084069425525
 Root    299 :     6.880670479383274
 Root    300 :     6.881904845428919
 Root    301 :     6.892030168275676
 Root    302 :     6.893314207014557
 Root    303 :     6.900890840913361
 Root    304 :     6.906029847571994
 Root    305 :     6.911473406262337
 Root    306 :     6.916225002950980
 Root    307 :     6.925520260086866
 Root    308 :     6.927402838601881
 Root    309 :     6.931384458922091
 Root    310 :     6.939446524050214
 Root    311 :     6.943317163489158
 Root    312 :     6.953982205236377
 Root    313 :     6.958876459080694
 Root    314 :     6.962608229975620
 Root    315 :     6.963834535403985
 Root    316 :     6.974635842454473
 Root    317 :     6.980693464127950
 Root    318 :     6.983136224987295
 Root    319 :     6.986357208091880
 Root    320 :     6.990478441753598
 Root    321 :     6.998470982565327
 Root    322 :     7.010482132810165
 Root    323 :     7.018877839491655
 Root    324 :     7.021348303762925
 Root    325 :     7.022281652810549
 Root    326 :     7.024088753998121
 Root    327 :     7.025191569930713
 Root    328 :     7.046385266481463
 Root    329 :     7.053486862851142
 Root    330 :     7.054993271848674
 Root    331 :     7.056967454480763
 Root    332 :     7.059741582246190
 Root    333 :     7.067006066934104
 Root    334 :     7.068418157922631
 Root    335 :     7.072186401001401
 Root    336 :     7.074862454196641
 Root    337 :     7.081084957911991
 Root    338 :     7.086142186081964
 Root    339 :     7.087677003922864
 Root    340 :     7.092482928595593
 Root    341 :     7.097270146935189
 Root    342 :     7.099168483703310
 Root    343 :     7.104481792391431
 Root    344 :     7.105918716829415
 Root    345 :     7.116582679906585
 Root    346 :     7.125983971274112
 Root    347 :     7.141805878625906
 Root    348 :     7.142426803495888
 Root    349 :     7.150785283454405
 Root    350 :     7.160104071293333
 Root    351 :     7.166791487943003
 Root    352 :     7.171770799275848
 Root    353 :     7.175075994250191
 Root    354 :     7.189151621372322
 Root    355 :     7.199103210251457
 Root    356 :     7.203798203971974
 Root    357 :     7.207870902956974
 Root    358 :     7.211118140922312
 Root    359 :     7.212304220034360
 Root    360 :     7.216838555345694
 Root    361 :     7.217569297440086
 Root    362 :     7.225634897327380
 Root    363 :     7.235944731376605
 Root    364 :     7.238959908364643
 Root    365 :     7.244015483668437
 Root    366 :     7.253785906071205
 Root    367 :     7.262248143462919
 Root    368 :     7.264986632254095
 Root    369 :     7.267007835478901
 Root    370 :     7.272338588387568
 Root    371 :     7.280498212111501
 Root    372 :     7.290167333633820
 Root    373 :     7.295563565395278
 Root    374 :     7.307644467057273
 Root    375 :     7.317385527457442
 Root    376 :     7.319633137464738
 Root    377 :     7.328177430095331
 Root    378 :     7.334922759463309
 Root    379 :     7.335766532568115
 Root    380 :     7.351630711165304
 Root    381 :     7.353399577305464
 Root    382 :     7.363677153529482
 Root    383 :     7.370390874743672
 Root    384 :     7.375903489496030
 Root    385 :     7.384681093206473
 Root    386 :     7.391507700776939
 Root    387 :     7.394219709630866
 Root    388 :     7.424528811259669
 Root    389 :     7.496760079089545
 Root    390 :     7.584109356768479
 Root    391 :     8.116372708765411
 Root    392 :     8.173979602351784
 Root    393 :     8.206333289298284
 Root    394 :     8.297365869168019
 Root    395 :     8.338026850157309
 Root    396 :     8.431449655698474
 Root    397 :     8.548353124891461
 Root    398 :     8.652292381553941
 Root    399 :     8.746775811681339
 Root    400 :     9.128497001117548
 Iteration     2 Dimension   600 NMult   400 NNew    200
 CISAX will form    80 AO SS matrices at one time.
 NMat=    80 NSing=    80 JSym2X= 0.
 NMat=    80 NSing=    80 JSym2X= 0.
 NMat=    40 NSing=    40 JSym2X= 0.
 Root      1 not converged, maximum delta is    0.045768878691594
 Root      2 not converged, maximum delta is    0.016034909501005
 Root      3 not converged, maximum delta is    0.019897791229362
 Root      4 not converged, maximum delta is    0.018939105956507
 Root      5 not converged, maximum delta is    0.019361995599002
 Root      6 not converged, maximum delta is    0.122159251203159
 Root      7 not converged, maximum delta is    0.009711588996780
 Root      8 not converged, maximum delta is    0.112712067827118
 Root      9 not converged, maximum delta is    0.036693784939782
 Root     10 not converged, maximum delta is    0.018723499146720
 Root     11 not converged, maximum delta is    0.050494243817502
 New state     12 was old state     13
 Root     12 not converged, maximum delta is    0.218095704284776
 New state     13 was old state     12
 Root     13 not converged, maximum delta is    0.159408077038429
 Root     14 not converged, maximum delta is    0.176677788330634
 Root     15 not converged, maximum delta is    0.381866260328627
 Root     16 not converged, maximum delta is    0.414879039235529
 Root     17 not converged, maximum delta is    0.399709996668639
 Root     18 not converged, maximum delta is    0.125305987694601
 Root     19 not converged, maximum delta is    0.109628764362887
 Root     20 not converged, maximum delta is    0.223971806340525
 New state     21 was old state     22
 Root     21 not converged, maximum delta is    0.230125384088752
 New state     22 was old state     21
 Root     22 not converged, maximum delta is    0.212936254512663
 Root     23 not converged, maximum delta is    0.085707446187159
 New state     24 was old state     26
 Root     24 not converged, maximum delta is    0.234040589697628
 New state     25 was old state     24
 Root     25 not converged, maximum delta is    0.214258712636435
 New state     26 was old state     25
 Root     26 not converged, maximum delta is    0.243091342757455
 Root     27 not converged, maximum delta is    0.023939532439448
 Root     28 not converged, maximum delta is    0.138161466157921
 Root     29 not converged, maximum delta is    0.237270454856418
 Root     30 not converged, maximum delta is    0.232726823292365
 Root     31 not converged, maximum delta is    0.202641656841814
 Root     32 not converged, maximum delta is    0.142478056466666
 New state     33 was old state     34
 Root     33 not converged, maximum delta is    0.095402450533337
 New state     34 was old state     33
 Root     34 not converged, maximum delta is    0.144564446409122
 Root     35 not converged, maximum delta is    0.046230970047559
 New state     36 was old state     40
 Root     36 not converged, maximum delta is    0.382410681964236
 New state     37 was old state     36
 Root     37 not converged, maximum delta is    0.122122751364048
 New state     38 was old state     37
 Root     38 not converged, maximum delta is    0.259041644911780
 New state     39 was old state     38
 Root     39 not converged, maximum delta is    0.242469753361843
 New state     40 was old state     46
 Root     40 not converged, maximum delta is    0.261519200779037
 New state     41 was old state     39
 Root     41 not converged, maximum delta is    0.268132920591519
 New state     42 was old state     41
 Root     42 not converged, maximum delta is    0.079281469810435
 New state     43 was old state     42
 Root     43 not converged, maximum delta is    0.115659504783092
 Root     44 not converged, maximum delta is    0.242610477331512
 New state     45 was old state     43
 Root     45 not converged, maximum delta is    0.045896548653012
 New state     46 was old state     45
 Root     46 not converged, maximum delta is    0.254018009590918
 Root     47 not converged, maximum delta is    0.046429409041271
 Root     48 not converged, maximum delta is    0.215489846190879
 Root     49 not converged, maximum delta is    0.024526009440920
 Root     50 not converged, maximum delta is    0.023336306858963
 New state     51 was old state     52
 Root     51 not converged, maximum delta is    0.228363568475314
 New state     52 was old state     51
 Root     52 not converged, maximum delta is    0.151810158637468
 New state     53 was old state     56
 Root     53 not converged, maximum delta is    0.496123366004152
 Root     54 not converged, maximum delta is    0.118770639288633
 Root     55 not converged, maximum delta is    0.274786650626338
 New state     56 was old state     53
 Root     56 not converged, maximum delta is    0.209038342425175
 Root     57 not converged, maximum delta is    0.369005055335877
 New state     58 was old state     59
 Root     58 not converged, maximum delta is    0.405441260787880
 New state     59 was old state     58
 Root     59 not converged, maximum delta is    0.042134536760093
 Root     60 not converged, maximum delta is    0.321662102754209
 New state     61 was old state     63
 Root     61 not converged, maximum delta is    0.392612019593460
 New state     62 was old state     61
 Root     62 not converged, maximum delta is    0.183840520336263
 New state     63 was old state     62
 Root     63 not converged, maximum delta is    0.091673958665509
 New state     64 was old state     65
 Root     64 not converged, maximum delta is    0.375970245914468
 New state     65 was old state     66
 Root     65 not converged, maximum delta is    0.213199789177772
 New state     66 was old state     64
 Root     66 not converged, maximum delta is    0.337456281505672
 New state     67 was old state     71
 Root     67 not converged, maximum delta is    0.391183952972290
 Root     68 not converged, maximum delta is    0.345586273975169
 New state     69 was old state     67
 Root     69 not converged, maximum delta is    0.111837733287893
 New state     70 was old state     69
 Root     70 not converged, maximum delta is    0.159395061203357
 New state     71 was old state     75
 Root     71 not converged, maximum delta is    0.323162447609010
 New state     72 was old state     70
 Root     72 not converged, maximum delta is    0.142482075173206
 New state     73 was old state     72
 Root     73 not converged, maximum delta is    0.436734494590632
 New state     74 was old state     81
 Root     74 not converged, maximum delta is    0.611812308369842
 New state     75 was old state     73
 Root     75 not converged, maximum delta is    0.145511005984068
 New state     76 was old state     74
 Root     76 not converged, maximum delta is    0.247023596416013
 New state     77 was old state     76
 Root     77 not converged, maximum delta is    0.359048437942885
 New state     78 was old state     77
 Root     78 not converged, maximum delta is    0.187380119384348
 New state     79 was old state     78
 Root     79 not converged, maximum delta is    0.123059469033122
 New state     80 was old state     79
 Root     80 not converged, maximum delta is    0.291989829942407
 New state     81 was old state     80
 Root     81 not converged, maximum delta is    0.333351149355020
 Root     82 not converged, maximum delta is    0.542996546106044
 Root     83 not converged, maximum delta is    0.353468435245050
 Root     84 not converged, maximum delta is    0.210567684765008
 Root     85 not converged, maximum delta is    0.322219508885544
 New state     86 was old state     87
 Root     86 not converged, maximum delta is    0.185977441819563
 New state     87 was old state     86
 Root     87 not converged, maximum delta is    0.184109659172181
 New state     88 was old state     89
 Root     88 not converged, maximum delta is    0.455121482335954
 New state     89 was old state     88
 Root     89 not converged, maximum delta is    0.323060475876536
 New state     90 was old state     91
 Root     90 not converged, maximum delta is    0.373381398109939
 New state     91 was old state     90
 Root     91 not converged, maximum delta is    0.018481381383081
 Root     92 not converged, maximum delta is    0.213775251645471
 Root     93 not converged, maximum delta is    0.301478760676142
 New state     94 was old state     97
 Root     94 not converged, maximum delta is    0.326291520042319
 New state     95 was old state     94
 Root     95 not converged, maximum delta is    0.187849584369307
 New state     96 was old state     95
 Root     96 not converged, maximum delta is    0.114039592110732
 New state     97 was old state     99
 Root     97 not converged, maximum delta is    0.251790376288237
 New state     98 was old state     96
 Root     98 not converged, maximum delta is    0.170788671293216
 New state     99 was old state     98
 Root     99 not converged, maximum delta is    0.098123286333527
 Root    100 not converged, maximum delta is    0.407122459669282
 Excitation Energies [eV] at current iteration:
 Root      1 :     1.437701108742655   Change is   -0.243905826761582
 Root      2 :     1.890349256133584   Change is   -0.040112840040250
 Root      3 :     2.002637739394581   Change is   -0.011678358857477
 Root      4 :     2.316513393671556   Change is   -0.029517210694247
 Root      5 :     2.843961936690230   Change is   -0.020686982277157
 Root      6 :     2.941297282222255   Change is   -0.016571147012546
 Root      7 :     2.976288844989856   Change is   -0.002015211497173
 Root      8 :     3.007783184103955   Change is   -0.026822224034030
 Root      9 :     3.062794906848097   Change is   -0.006128026247687
 Root     10 :     3.093741419834473   Change is   -0.004412067391669
 Root     11 :     3.149459647427471   Change is   -0.011944797517533
 Root     12 :     3.183206094367608   Change is   -0.045822633943576
 Root     13 :     3.197603378951141   Change is   -0.007516135171083
 Root     14 :     3.239563977384857   Change is   -0.048150814486496
 Root     15 :     3.394324119994145   Change is   -0.093945701268803
 Root     16 :     3.562629204038084   Change is   -0.044220676963301
 Root     17 :     3.577643676972506   Change is   -0.063297459830449
 Root     18 :     3.719689769776498   Change is   -0.077988295775457
 Root     19 :     3.830083225061074   Change is   -0.006726699819479
 Root     20 :     3.858829022192803   Change is   -0.013917926379916
 Root     21 :     3.878515066325459   Change is   -0.048963790388821
 Root     22 :     3.883711943101120   Change is   -0.005939015244405
 Root     23 :     3.937413962538059   Change is   -0.002740263448908
 Root     24 :     3.953183895150253   Change is   -0.046571443220912
 Root     25 :     3.970959665933819   Change is   -0.002241707552167
 Root     26 :     3.974900182583260   Change is   -0.003922522831384
 Root     27 :     4.017848644351279   Change is   -0.001298935591881
 Root     28 :     4.031790936021958   Change is   -0.019757049925157
 Root     29 :     4.049714527950150   Change is   -0.049391349064041
 Root     30 :     4.088888359557720   Change is   -0.026185519954715
 Root     31 :     4.097560751503495   Change is   -0.035319247272842
 Root     32 :     4.123376317619269   Change is   -0.011558635053696
 Root     33 :     4.139021444154774   Change is   -0.020221301339131
 Root     34 :     4.144753683525065   Change is   -0.009610304631533
 Root     35 :     4.164020154964806   Change is   -0.009251634264789
 Root     36 :     4.209201562029977   Change is   -0.112188134933774
 Root     37 :     4.215590906455735   Change is   -0.017741587442917
 Root     38 :     4.230381168365008   Change is   -0.026154791221803
 Root     39 :     4.283618546769898   Change is   -0.009485440341843
 Root     40 :     4.297067269078872   Change is   -0.236252333329584
[...]
                                                                                                                                                                                                                                                                                                                                                                                                                                                                                                                                                                                                                                                                                                                                                                                                                                                                                                                                                                                                                                                                                                                                                                                                                                                                                                                                                                                                                                                                                                                                                                                                                                                                                                                                                                                                                                                                                                                                                                                                                                                                                                                                                                                                                                                                                                                                                                                                                                                                                                                                                                                                                                                                                                                                                                                                                                                                                                                                                                                                                                                                                                                                                                                                                                                                                                                                                                                                                                                                                                                                                                                                                                                                                                                                                                                                                                                                                                                                                                                                                                                                                                                                                                                                                                                                                                                                                                                                                                                                                                                                                                                                                                                                                                                                                                                                                                                                                                                                                                                                                                                                                                                                                                                                                                                                                                                                                                                                                                                                                                                                                                                                                                                                                                                                                                                                                                                                                                                                                                                                                                                                                                                                                                                                                                                                                                                                                                                                                                                                                                                                                                                                                                                                                                                                                                                                                                                                                                                                                                                                                                                                                                                                                                                                                                                                                                                                                                                                                                                                                                                                                                                                                                                                                                                                                                                                                                                                                                                                                                                                                                                                                                                                                                                                                                                                                                                                                                                                                                                                                                                                                                                                                                                                                                                                                                                                                                                                                                                                                                                                                                                                                                                                                                                                                                                                                                                                                                                                                                                                                                                                                                                                                                                                                                                                                                                                                                                                                                                                                                                                                                                                                                                                                                                                                                                                                                                                                                                                                                                                                                                                                                                                                                                                                                                                                                                                                                                                                                                                                                                                                                                                                                                                                                                                                                                                                                                                                                                                                                                                                                                                                                                                                                                                                                                                                                                                                                                                                                                                                                                                                                                                                                                                                                                                                                                                                                                                                                                                                                                                                                                                                                                                                                                                                                                                                                                                                                                                                                                                                                                                                                                                                                                                                                                                                                                                                                                                                                                                                                                                                                                                                                                                                                                                                                                                                                                                                                                                                                                                                                                                                                                                                                                                                                                                                                                                                                                                                                                                                                                                                                                                                                                                                                                                                                                                                                                                                                                                                                                                                                                                                                                                                                                                                                                                                                                                                                                                                                                                                                                                                                                                                                                                                                                                                                                                                                                                                                                                                                                                                                                                                                                                                                                                                                                                                                                                                                                                                                                                                                                                                                                                                                                                                                                                                                                                                                                                                                                                                                                                                                                                                                                                                                                                                                                                                                                                                                                                                                                                                                                                                                                                                                                                                                                                                                                                                                                                                                                                                                                                                                                                                                                                                                                                                                                                                                                                                                                                                                                                                                                                                                                                                                                                                                                                                                                                                                                                                                                                                                                                                                                                                                                                                                                                                                                                                                                                                                                                                                                                                                                                                                                                                                                                                                                                                                                                                                                                                                                                                                                                                                                                                                                                                                                                                                                                                                                                                                                                                                                                                                                                                                                                                                                                                                                                                                                                                                                                                               
